ITEM: TIMESTEP
0
ITEM: NUMBER OF ATOMS
301
ITEM: BOX BOUNDS pp pp pp
-1.0000000000000000e+03 1.0000000000000000e+03
-1.0000000000000000e+03 1.0000000000000000e+03
-1.0000000000000000e+03 1.0000000000000000e+03
ITEM: ATOMS id x y z ix iy iz
1 0.00000 0.00000 0.00000 0 0 0
2 0.00000 0.00000 1.00000 0 0 0
3 0.00000 -0.50000 1.86603 0 0 0
4 0.00000 0.00000 2.73205 0 0 0
5 0.00000 -0.50000 3.59808 0 0 0
6 0.00000 0.00000 4.46410 0 0 0
7 0.00000 -0.50000 5.33013 0 0 0
8 0.00000 0.00000 6.19615 0 0 0
9 0.00000 -0.50000 7.06218 0 0 0
10 0.00000 0.00000 7.92820 0 0 0
11 0.00000 -0.50000 8.79423 0 0 0
12 0.00000 0.00000 9.66025 0 0 0
13 0.00000 -0.50000 10.52628 0 0 0
14 0.00000 0.00000 11.39230 0 0 0
15 0.00000 -0.50000 12.25833 0 0 0
16 0.00000 0.00000 13.12436 0 0 0
17 0.00000 -0.50000 13.99038 0 0 0
18 0.00000 0.00000 14.85641 0 0 0
19 0.00000 -0.50000 15.72243 0 0 0
20 0.00000 0.00000 16.58846 0 0 0
21 0.00000 -0.50000 17.45448 0 0 0
22 0.00000 0.00000 18.32051 0 0 0
23 0.00000 -0.50000 19.18653 0 0 0
24 0.00000 0.00000 20.05256 0 0 0
25 0.00000 -0.50000 20.91858 0 0 0
26 0.00000 0.00000 21.78461 0 0 0
27 0.00000 -0.50000 22.65064 0 0 0
28 0.00000 0.00000 23.51666 0 0 0
29 0.00000 -0.50000 24.38269 0 0 0
30 0.00000 0.00000 25.24871 0 0 0
31 0.00000 -0.50000 26.11474 0 0 0
32 -0.37800 0.08094 26.83559 0 0 0
33 -0.75600 0.22362 27.75033 0 0 0
34 -1.13400 1.08715 28.08414 0 0 0
35 -1.51200 1.22983 28.99889 0 0 0
36 -1.88999 2.09337 29.33269 0 0 0
37 -2.26799 2.23605 30.24744 0 0 0
38 -2.64599 3.09958 30.58125 0 0 0
39 -3.02399 3.24226 31.49599 0 0 0
40 -3.40199 4.10580 31.82980 0 0 0
41 -3.77999 4.24848 32.74454 0 0 0
42 -4.15799 5.11201 33.07835 0 0 0
43 -4.53599 5.25469 33.99309 0 0 0
44 -4.91398 6.11823 34.32690 0 0 0
45 -5.29198 6.26091 35.24165 0 0 0
46 -5.66998 7.12444 35.57545 0 0 0
47 -6.04798 7.26712 36.49020 0 0 0
48 -6.42598 8.13066 36.82401 0 0 0
49 -6.80398 8.27334 37.73875 0 0 0
50 -7.18198 9.13687 38.07256 0 0 0
51 -7.55998 9.27955 38.98730 0 0 0
52 -7.93797 10.14309 39.32111 0 0 0
53 -8.31597 10.28577 40.23586 0 0 0
54 -8.69397 11.14930 40.56966 0 0 0
55 -9.07197 11.29198 41.48441 0 0 0
56 -9.44997 12.15552 41.81821 0 0 0
57 -9.82797 12.29820 42.73296 0 0 0
58 -10.20597 13.16173 43.06677 0 0 0
59 -10.58397 13.30441 43.98151 0 0 0
60 -10.96196 14.16795 44.31532 0 0 0
61 -11.33996 14.31063 45.23006 0 0 0
62 0.93684 -0.75733 26.35162 0 0 0
63 1.87368 -1.09862 26.42810 0 0 0
64 2.81052 -1.20303 26.76191 0 0 0
65 3.74736 -1.54432 26.83839 0 0 0
66 4.68421 -1.64873 27.17219 0 0 0
67 5.62105 -1.99002 27.24868 0 0 0
68 6.55789 -2.09443 27.58248 0 0 0
69 7.49473 -2.43572 27.65896 0 0 0
70 8.43157 -2.54013 27.99277 0 0 0
71 9.36841 -2.88142 28.06925 0 0 0
72 10.30525 -2.98583 28.40306 0 0 0
73 11.24209 -3.32712 28.47954 0 0 0
74 12.17894 -3.43153 28.81335 0 0 0
75 13.11578 -3.77282 28.88983 0 0 0
76 14.05262 -3.87723 29.22364 0 0 0
77 14.98946 -4.21852 29.30012 0 0 0
78 15.92630 -4.32293 29.63392 0 0 0
79 16.86314 -4.66422 29.71041 0 0 0
80 17.79998 -4.76863 30.04421 0 0 0
81 18.73682 -5.10992 30.12069 0 0 0
82 19.67367 -5.21433 30.45450 0 0 0
83 20.61051 -5.55562 30.53098 0 0 0
84 21.54735 -5.66003 30.86479 0 0 0
85 22.48419 -6.00132 30.94127 0 0 0
86 23.42103 -6.10573 31.27508 0 0 0
87 24.35787 -6.44702 31.35156 0 0 0
88 25.29471 -6.55143 31.68537 0 0 0
89 26.23155 -6.89272 31.76185 0 0 0
90 27.16840 -6.99713 32.09565 0 0 0
91 28.10524 -7.33842 32.17214 0 0 0
92 -0.55884 -1.32432 26.02426 0 0 0
93 -1.11768 -1.99297 25.53374 0 0 0
94 -1.67653 -2.75209 25.86755 0 0 0
95 -2.23537 -3.42074 25.37703 0 0 0
96 -2.79421 -4.17986 25.71084 0 0 0
97 -3.35305 -4.84851 25.22032 0 0 0
98 -3.91190 -5.60763 25.55413 0 0 0
99 -4.47074 -6.27628 25.06361 0 0 0
100 -5.02958 -7.03540 25.39742 0 0 0
101 -5.58842 -7.70405 24.90690 0 0 0
102 -6.14727 -8.46317 25.24071 0 0 0
103 -6.70611 -9.13182 24.75020 0 0 0
104 -7.26495 -9.89094 25.08400 0 0 0
105 -7.82379 -10.55959 24.59349 0 0 0
106 -8.38264 -11.31871 24.92729 0 0 0
107 -8.94148 -11.98736 24.43678 0 0 0
108 -9.50032 -12.74648 24.77058 0 0 0
109 -10.05916 -13.41513 24.28007 0 0 0
110 -10.61801 -14.17425 24.61387 0 0 0
111 -11.17685 -14.84290 24.12336 0 0 0
112 -11.73569 -15.60202 24.45716 0 0 0
113 -12.29453 -16.27067 23.96665 0 0 0
114 -12.85338 -17.02979 24.30045 0 0 0
115 -13.41222 -17.69844 23.80994 0 0 0
116 -13.97106 -18.45756 24.14374 0 0 0
117 -14.52990 -19.12621 23.65323 0 0 0
118 -15.08875 -19.88533 23.98703 0 0 0
119 -15.64759 -20.55398 23.49652 0 0 0
120 -16.20643 -21.31310 23.83032 0 0 0
121 -16.76527 -21.98175 23.33981 0 0 0
122 -16.54487 -21.95002 22.36492 0 0 0
123 -16.32446 -21.43509 21.53650 0 0 0
124 -16.10405 -21.89505 20.67636 0 0 0
125 -15.88364 -21.38012 19.84794 0 0 0
126 -15.66323 -21.84008 18.98779 0 0 0
127 -15.44282 -21.32515 18.15938 0 0 0
128 -15.22241 -21.78512 17.29923 0 0 0
129 -15.00200 -21.27019 16.47082 0 0 0
130 -14.78159 -21.73015 15.61067 0 0 0
131 -14.56118 -21.21522 14.78226 0 0 0
132 -14.34078 -21.67518 13.92211 0 0 0
133 -14.12037 -21.16025 13.09370 0 0 0
134 -13.89996 -21.62022 12.23355 0 0 0
135 -13.67955 -21.10529 11.40514 0 0 0
136 -13.45914 -21.56525 10.54499 0 0 0
137 -13.23873 -21.05032 9.71658 0 0 0
138 -13.01832 -21.51028 8.85643 0 0 0
139 -12.79791 -20.99535 8.02802 0 0 0
140 -12.57750 -21.45532 7.16787 0 0 0
141 -12.35709 -20.94039 6.33945 0 0 0
142 -12.13669 -21.40035 5.47931 0 0 0
143 -11.91628 -20.88542 4.65089 0 0 0
144 -11.69587 -21.34538 3.79075 0 0 0
145 -11.47546 -20.83045 2.96233 0 0 0
146 -11.25505 -21.29042 2.10218 0 0 0
147 -11.03464 -20.77549 1.27377 0 0 0
148 -10.81423 -21.23545 0.41362 0 0 0
149 -10.59382 -20.72052 -0.41479 0 0 0
150 -10.37341 -21.18048 -1.27494 0 0 0
151 -10.15301 -20.66555 -2.10335 0 0 0
152 -17.73330 -21.76697 23.46937 0 0 0
153 -18.70133 -21.64574 23.68897 0 0 0
154 -19.66936 -21.39495 23.69379 0 0 0
155 -20.63739 -21.27373 23.91339 0 0 0
156 -21.60542 -21.02293 23.91821 0 0 0
157 -22.57345 -20.90171 24.13781 0 0 0
158 -23.54148 -20.65092 24.14262 0 0 0
159 -24.50951 -20.52969 24.36222 0 0 0
160 -25.47754 -20.27890 24.36704 0 0 0
161 -26.44557 -20.15768 24.58664 0 0 0
162 -27.41360 -19.90689 24.59145 0 0 0
163 -28.38162 -19.78566 24.81105 0 0 0
164 -29.34965 -19.53487 24.81587 0 0 0
165 -30.31768 -19.41365 25.03547 0 0 0
166 -31.28571 -19.16285 25.04029 0 0 0
167 -32.25374 -19.04163 25.25989 0 0 0
168 -33.22177 -18.79084 25.26470 0 0 0
169 -34.18980 -18.66961 25.48430 0 0 0
170 -35.15783 -18.41882 25.48912 0 0 0
171 -36.12586 -18.29760 25.70872 0 0 0
172 -37.09389 -18.04681 25.71353 0 0 0
173 -38.06192 -17.92558 25.93313 0 0 0
174 -39.02995 -17.67479 25.93795 0 0 0
175 -39.99797 -17.55356 26.15755 0 0 0
176 -40.96600 -17.30277 26.16237 0 0 0
177 -41.93403 -17.18155 26.38197 0 0 0
178 -42.90206 -16.93076 26.38678 0 0 0
179 -43.87009 -16.80953 26.60638 0 0 0
180 -44.83812 -16.55874 26.61120 0 0 0
181 -45.80615 -16.43752 26.83080 0 0 0
182 -16.57729 -22.89787 23.69392 0 0 0
183 -16.38931 -23.86830 23.54253 0 0 0
184 -16.20132 -24.48462 24.30726 0 0 0
185 -16.01334 -25.45506 24.15587 0 0 0
186 -15.82536 -26.07138 24.92060 0 0 0
187 -15.63737 -27.04182 24.76921 0 0 0
188 -15.44939 -27.65814 25.53393 0 0 0
189 -15.26140 -28.62858 25.38255 0 0 0
190 -15.07342 -29.24490 26.14727 0 0 0
191 -14.88544 -30.21533 25.99589 0 0 0
192 -14.69745 -30.83166 26.76061 0 0 0
193 -14.50947 -31.80209 26.60922 0 0 0
194 -14.32148 -32.41842 27.37395 0 0 0
195 -14.13350 -33.38885 27.22256 0 0 0
196 -13.94552 -34.00517 27.98729 0 0 0
197 -13.75753 -34.97561 27.83590 0 0 0
198 -13.56955 -35.59193 28.60063 0 0 0
199 -13.38157 -36.56237 28.44924 0 0 0
200 -13.19358 -37.17869 29.21397 0 0 0
201 -13.00560 -38.14913 29.06258 0 0 0
202 -12.81761 -38.76545 29.82730 0 0 0
203 -12.62963 -39.73588 29.67592 0 0 0
204 -12.44165 -40.35221 30.44064 0 0 0
205 -12.25366 -41.32264 30.28926 0 0 0
206 -12.06568 -41.93897 31.05398 0 0 0
207 -11.87769 -42.90940 30.90259 0 0 0
208 -11.68971 -43.52572 31.66732 0 0 0
209 -11.50173 -44.49616 31.51593 0 0 0
210 -11.31374 -45.11248 32.28066 0 0 0
211 -11.12576 -46.08292 32.12927 0 0 0
212 -11.79254 -46.45535 31.48375 0 0 0
213 -12.45931 -46.45513 30.73849 0 0 0
214 -13.12609 -47.10043 30.36567 0 0 0
215 -13.79286 -47.10021 29.62041 0 0 0
216 -14.45964 -47.74551 29.24759 0 0 0
217 -15.12642 -47.74529 28.50233 0 0 0
218 -15.79319 -48.39059 28.12951 0 0 0
219 -16.45997 -48.39037 27.38425 0 0 0
220 -17.12675 -49.03567 27.01143 0 0 0
221 -17.79352 -49.03545 26.26617 0 0 0
222 -18.46030 -49.68075 25.89335 0 0 0
223 -19.12708 -49.68053 25.14809 0 0 0
224 -19.79385 -50.32583 24.77527 0 0 0
225 -20.46063 -50.32561 24.03002 0 0 0
226 -21.12741 -50.97091 23.65719 0 0 0
227 -21.79418 -50.97068 22.91194 0 0 0
228 -22.46096 -51.61599 22.53912 0 0 0
229 -23.12773 -51.61576 21.79386 0 0 0
230 -23.79451 -52.26106 21.42104 0 0 0
231 -24.46129 -52.26084 20.67578 0 0 0
232 -25.12806 -52.90614 20.30296 0 0 0
233 -25.79484 -52.90592 19.55770 0 0 0
234 -26.46162 -53.55122 19.18488 0 0 0
235 -27.12839 -53.55100 18.43962 0 0 0
236 -27.79517 -54.19630 18.06680 0 0 0
237 -28.46195 -54.19608 17.32154 0 0 0
238 -29.12872 -54.84138 16.94872 0 0 0
239 -29.79550 -54.84116 16.20346 0 0 0
240 -30.46228 -55.48646 15.83064 0 0 0
241 -31.12905 -55.48624 15.08538 0 0 0
242 -11.19193 -46.57512 32.99724 0 0 0
243 -11.25810 -47.43535 33.50282 0 0 0
244 -11.32427 -47.42763 34.50060 0 0 0
245 -11.39043 -48.28786 35.00618 0 0 0
246 -11.45660 -48.28014 36.00396 0 0 0
247 -11.52277 -49.14037 36.50954 0 0 0
248 -11.58894 -49.13265 37.50732 0 0 0
249 -11.65511 -49.99289 38.01290 0 0 0
250 -11.72128 -49.98516 39.01067 0 0 0
251 -11.78745 -50.84540 39.51626 0 0 0
252 -11.85362 -50.83767 40.51403 0 0 0
253 -11.91979 -51.69791 41.01962 0 0 0
254 -11.98596 -51.69018 42.01739 0 0 0
255 -12.05212 -52.55042 42.52298 0 0 0
256 -12.11829 -52.54269 43.52075 0 0 0
257 -12.18446 -53.40293 44.02633 0 0 0
258 -12.25063 -53.39520 45.02411 0 0 0
259 -12.31680 -54.25544 45.52969 0 0 0
260 -12.38297 -54.24771 46.52747 0 0 0
261 -12.44914 -55.10795 47.03305 0 0 0
262 -12.51531 -55.10022 48.03083 0 0 0
263 -12.58148 -55.96046 48.53641 0 0 0
264 -12.64765 -55.95273 49.53419 0 0 0
265 -12.71381 -56.81297 50.03977 0 0 0
266 -12.77998 -56.80524 51.03755 0 0 0
267 -12.84615 -57.66548 51.54313 0 0 0
268 -12.91232 -57.65776 52.54091 0 0 0
269 -12.97849 -58.51799 53.04649 0 0 0
270 -13.04466 -58.51027 54.04427 0 0 0
271 -13.11083 -59.37050 54.54985 0 0 0
272 -10.20456 -46.19010 31.75523 0 0 0
273 -9.28337 -46.09589 31.37770 0 0 0
274 -8.36217 -46.37574 31.10736 0 0 0
275 -7.44097 -46.28154 30.72984 0 0 0
276 -6.51978 -46.56138 30.45949 0 0 0
277 -5.59858 -46.46718 30.08197 0 0 0
278 -4.67738 -46.74702 29.81163 0 0 0
279 -3.75619 -46.65282 29.43411 0 0 0
280 -2.83499 -46.93266 29.16376 0 0 0
281 -1.91380 -46.83846 28.78624 0 0 0
282 -0.99260 -47.11830 28.51590 0 0 0
283 -0.07140 -47.02410 28.13838 0 0 0
284 0.84979 -47.30394 27.86803 0 0 0
285 1.77099 -47.20974 27.49051 0 0 0
286 2.69219 -47.48958 27.22017 0 0 0
287 3.61338 -47.39538 26.84264 0 0 0
288 4.53458 -47.67522 26.57230 0 0 0
289 5.45577 -47.58102 26.19478 0 0 0
290 6.37697 -47.86086 25.92444 0 0 0
291 7.29817 -47.76666 25.54691 0 0 0
292 8.21936 -48.04650 25.27657 0 0 0
293 9.14056 -47.95230 24.89905 0 0 0
294 10.06176 -48.23214 24.62870 0 0 0
295 10.98295 -48.13794 24.25118 0 0 0
296 11.90415 -48.41778 23.98084 0 0 0
297 12.82535 -48.32358 23.60332 0 0 0
298 13.74654 -48.60342 23.33297 0 0 0
299 14.66774 -48.50922 22.95545 0 0 0
300 15.58893 -48.78906 22.68511 0 0 0
301 16.51013 -48.69486 22.30759 0 0 0
ITEM: TIMESTEP
1000
ITEM: NUMBER OF ATOMS
301
ITEM: BOX BOUNDS pp pp pp
-1.0000000000000000e+03 1.0000000000000000e+03
-1.0000000000000000e+03 1.0000000000000000e+03
-1.0000000000000000e+03 1.0000000000000000e+03
ITEM: ATOMS id x y z ix iy iz
1 -0.35293 1.25694 4.40589 0 0 0
2 -0.66000 1.05684 5.32517 0 0 0
3 -0.41875 0.88632 6.36365 0 0 0
4 -1.34625 0.92424 6.46483 0 0 0
5 -2.02298 0.31304 6.65531 0 0 0
6 -1.99146 -0.24926 7.43437 0 0 0
7 -2.23746 0.10225 8.32727 0 0 0
8 -1.77979 -0.60424 8.69135 0 0 0
9 -1.61828 -1.20562 9.44611 0 0 0
10 -1.39056 -1.65901 10.34745 0 0 0
11 -0.91390 -1.71206 11.16451 0 0 0
12 -1.40274 -1.64951 12.02084 0 0 0
13 -0.96735 -1.27885 12.83118 0 0 0
14 -0.61502 -0.81255 13.61790 0 0 0
15 -1.51320 -0.82347 14.19583 0 0 0
16 -1.20221 -0.82885 15.06712 0 0 0
17 -1.79034 -0.49775 15.72637 0 0 0
18 -2.13762 -0.00275 16.53673 0 0 0
19 -1.35986 0.25368 17.11370 0 0 0
20 -1.26886 -0.02015 18.10419 0 0 0
21 -1.24879 0.44727 18.94134 0 0 0
22 -0.39125 0.49346 19.47596 0 0 0
23 0.39308 0.02605 19.77538 0 0 0
24 0.77611 -0.68244 20.24514 0 0 0
25 0.55307 -1.03059 21.15337 0 0 0
26 0.35447 -0.83573 22.06447 0 0 0
27 0.04885 -1.02423 22.96602 0 0 0
28 0.34412 -0.78215 23.87992 0 0 0
29 0.21137 -0.97813 24.78084 0 0 0
30 0.41099 -1.93232 25.02264 0 0 0
31 0.45688 -1.95724 26.03666 0 0 0
32 -0.01538 -1.14142 26.36381 0 0 0
33 -0.20128 -1.59123 27.27707 0 0 0
34 -0.76045 -0.81639 27.61987 0 0 0
35 -0.92418 -0.57762 28.54627 0 0 0
36 -1.28353 0.19460 28.99786 0 0 0
37 -1.61202 0.85210 29.66219 0 0 0
38 -2.44531 1.29427 30.02449 0 0 0
39 -2.73025 2.02727 30.62526 0 0 0
40 -2.76961 2.53248 31.48212 0 0 0
41 -2.37941 3.24138 31.95859 0 0 0
42 -2.07291 4.16360 31.99331 0 0 0
43 -2.40224 5.21712 32.22135 0 0 0
44 -2.65001 6.20138 32.03268 0 0 0
45 -2.35450 7.01655 32.45988 0 0 0
46 -2.80606 7.80878 32.16747 0 0 0
47 -3.42103 8.24123 32.87470 0 0 0
48 -4.12126 8.37238 33.56822 0 0 0
49 -4.82545 8.13479 34.28944 0 0 0
50 -5.64025 8.44568 34.73581 0 0 0
51 -5.43341 9.03874 35.39850 0 0 0
52 -5.70299 9.70364 36.10933 0 0 0
53 -6.27929 10.49571 36.46847 0 0 0
54 -6.66136 11.23986 37.06197 0 0 0
55 -7.40639 11.81073 36.82418 0 0 0
56 -7.91877 12.68462 36.92882 0 0 0
57 -8.96611 12.98887 36.98246 0 0 0
58 -9.14044 12.59572 37.79005 0 0 0
59 -9.25897 12.21487 38.66714 0 0 0
60 -8.87008 12.01097 39.52524 0 0 0
61 -8.55704 11.17010 39.17687 0 0 0
62 1.22331 -2.54888 26.20466 0 0 0
63 2.12246 -2.91645 26.54429 0 0 0
64 2.78099 -2.87687 27.23403 0 0 0
65 3.69605 -2.62771 27.40703 0 0 0
66 4.52681 -2.44313 27.92782 0 0 0
67 5.54886 -2.49946 27.92150 0 0 0
68 6.50435 -2.74505 28.08559 0 0 0
69 7.08337 -2.96598 28.86941 0 0 0
70 8.03135 -2.79157 28.68063 0 0 0
71 8.98613 -2.66873 28.61434 0 0 0
72 9.87977 -2.45872 28.38557 0 0 0
73 10.64135 -3.00109 28.61649 0 0 0
74 11.26972 -2.71408 29.42692 0 0 0
75 12.18603 -2.43221 29.14050 0 0 0
76 12.97804 -2.99867 29.41889 0 0 0
77 13.67210 -2.49109 28.96546 0 0 0
78 14.53543 -3.02495 29.10438 0 0 0
79 15.53085 -3.26107 29.43395 0 0 0
80 16.37553 -3.74684 29.30203 0 0 0
81 16.84741 -4.54836 29.23527 0 0 0
82 17.15183 -5.28118 29.79398 0 0 0
83 18.09968 -5.53360 30.00059 0 0 0
84 18.80960 -5.39729 30.66916 0 0 0
85 19.67748 -5.86158 30.48183 0 0 0
86 20.57731 -5.43538 30.18766 0 0 0
87 21.27080 -5.88192 29.59069 0 0 0
88 21.95865 -6.42174 29.12441 0 0 0
89 21.32671 -7.12784 29.08517 0 0 0
90 20.85793 -7.83992 29.69325 0 0 0
91 19.89289 -8.05625 29.82623 0 0 0
92 -0.23136 -2.66111 25.98740 0 0 0
93 -0.84287 -3.29892 25.47920 0 0 0
94 -1.27912 -4.16964 25.37470 0 0 0
95 -2.25125 -4.42445 25.59907 0 0 0
96 -2.38465 -5.41135 25.54898 0 0 0
97 -3.04844 -6.06130 25.99999 0 0 0
98 -3.98496 -6.44031 26.05867 0 0 0
99 -4.75964 -7.05038 25.90033 0 0 0
100 -5.55502 -7.70852 26.12935 0 0 0
101 -6.41942 -8.13928 26.11907 0 0 0
102 -7.38432 -8.04406 26.05815 0 0 0
103 -7.34322 -8.93698 26.38745 0 0 0
104 -8.07168 -9.53099 26.29125 0 0 0
105 -8.68514 -10.04669 25.69371 0 0 0
106 -9.30924 -10.86939 25.50659 0 0 0
107 -9.63781 -11.56014 24.93084 0 0 0
108 -10.19774 -12.33871 25.17444 0 0 0
109 -10.39738 -13.23982 24.82453 0 0 0
110 -10.46872 -13.83398 24.11181 0 0 0
111 -11.15324 -14.42347 23.90469 0 0 0
112 -11.59628 -15.18631 24.40108 0 0 0
113 -11.55012 -15.98956 23.83760 0 0 0
114 -12.31266 -16.65008 24.03248 0 0 0
115 -12.81270 -17.44563 24.55897 0 0 0
116 -13.63154 -18.01390 24.59946 0 0 0
117 -14.38805 -18.73257 24.31158 0 0 0
118 -15.01089 -19.30780 23.81935 0 0 0
119 -15.54790 -20.07510 23.62876 0 0 0
120 -16.17964 -20.82716 23.25988 0 0 0
121 -16.29232 -21.74348 22.73330 0 0 0
122 -15.80523 -21.47673 21.89146 0 0 0
123 -15.98901 -21.80556 20.96255 0 0 0
124 -15.77802 -22.78411 20.80407 0 0 0
125 -15.27394 -23.36340 20.12684 0 0 0
126 -15.06694 -23.31599 19.15309 0 0 0
127 -14.64022 -23.86083 18.40919 0 0 0
128 -14.92665 -23.96328 17.45225 0 0 0
129 -14.63639 -23.79416 16.54219 0 0 0
130 -14.87120 -23.14648 15.91458 0 0 0
131 -14.20192 -23.06442 15.19667 0 0 0
132 -13.26606 -22.74652 14.96429 0 0 0
133 -13.61689 -22.48520 13.99949 0 0 0
134 -13.39647 -22.31898 13.00357 0 0 0
135 -12.59222 -21.73182 12.72058 0 0 0
136 -12.49885 -21.60421 11.72077 0 0 0
137 -11.83358 -21.94039 11.11714 0 0 0
138 -11.53901 -21.49130 10.35762 0 0 0
139 -11.61350 -21.15224 9.35437 0 0 0
140 -11.62963 -20.46518 8.62801 0 0 0
141 -11.81747 -20.48149 7.61620 0 0 0
142 -11.61538 -20.87065 6.72913 0 0 0
143 -11.31030 -21.21045 5.93690 0 0 0
144 -10.63374 -21.24771 5.19856 0 0 0
145 -9.95877 -21.65385 4.70722 0 0 0
146 -9.68555 -21.51699 3.74692 0 0 0
147 -9.80935 -21.12017 2.82182 0 0 0
148 -9.51992 -21.15007 1.81661 0 0 0
149 -9.01399 -20.81695 1.09995 0 0 0
150 -8.68540 -20.47637 0.26170 0 0 0
151 -8.24091 -19.60836 0.21331 0 0 0
152 -17.25295 -21.89769 22.87707 0 0 0
153 -18.19062 -22.25195 22.76635 0 0 0
154 -19.14264 -22.22789 22.88665 0 0 0
155 -19.96815 -21.92115 23.23965 0 0 0
156 -20.72613 -21.35781 23.47825 0 0 0
157 -21.70971 -21.22535 23.40931 0 0 0
158 -22.66807 -21.21565 23.36986 0 0 0
159 -23.67411 -21.34991 23.10965 0 0 0
160 -24.44110 -20.98579 23.69537 0 0 0
161 -25.33152 -20.81671 23.23214 0 0 0
162 -26.24463 -20.64587 23.21618 0 0 0
163 -27.12882 -20.19308 22.78383 0 0 0
164 -27.92393 -19.77710 22.32103 0 0 0
165 -28.59774 -19.77299 23.06410 0 0 0
166 -29.42242 -20.27859 23.38114 0 0 0
167 -29.99727 -19.52484 23.12525 0 0 0
168 -30.38183 -18.95433 23.78164 0 0 0
169 -31.24206 -18.85445 24.27837 0 0 0
170 -31.99719 -19.27915 24.68526 0 0 0
171 -32.72168 -19.82132 25.07817 0 0 0
172 -33.71613 -19.78037 24.81530 0 0 0
173 -34.69075 -20.12323 24.96576 0 0 0
174 -35.25764 -20.19587 25.75359 0 0 0
175 -35.94147 -20.86359 25.69247 0 0 0
176 -36.61275 -20.71778 26.38648 0 0 0
177 -36.98262 -20.39686 27.22583 0 0 0
178 -37.78316 -20.37423 27.72375 0 0 0
179 -38.10275 -19.78302 26.95138 0 0 0
180 -37.91700 -18.84770 26.66792 0 0 0
181 -38.49892 -18.89639 27.46142 0 0 0
182 -15.75519 -22.29781 23.37074 0 0 0
183 -15.85396 -23.24492 23.51105 0 0 0
184 -16.32974 -23.88474 24.15817 0 0 0
185 -16.04623 -24.73564 24.55982 0 0 0
186 -15.73892 -25.70477 24.77677 0 0 0
187 -15.96839 -26.58974 25.12578 0 0 0
188 -16.25462 -27.47354 25.28713 0 0 0
189 -16.22585 -28.30813 25.83843 0 0 0
190 -16.39123 -29.06353 26.52521 0 0 0
191 -15.70237 -29.59227 26.87977 0 0 0
192 -15.18681 -30.43156 27.26725 0 0 0
193 -14.99890 -31.32345 27.74457 0 0 0
194 -14.17347 -31.72888 28.30865 0 0 0
195 -13.54555 -32.56527 28.49066 0 0 0
196 -13.37446 -33.32712 29.07088 0 0 0
197 -12.98098 -34.15798 29.47314 0 0 0
198 -13.03712 -34.85188 30.22291 0 0 0
199 -12.74430 -35.60729 30.74278 0 0 0
200 -12.63599 -36.48047 31.05666 0 0 0
201 -12.38450 -37.40405 31.17341 0 0 0
202 -12.47032 -38.37572 31.07774 0 0 0
203 -12.50839 -39.25336 30.56774 0 0 0
204 -11.87139 -39.66816 29.99477 0 0 0
205 -11.19999 -40.38409 29.78803 0 0 0
206 -10.66402 -41.31524 29.96795 0 0 0
207 -11.32875 -42.11521 30.19221 0 0 0
208 -11.10155 -42.96207 30.61574 0 0 0
209 -11.54108 -43.67997 30.94619 0 0 0
210 -11.33122 -44.32626 31.58358 0 0 0
211 -10.99875 -45.27593 31.42563 0 0 0
212 -11.72693 -45.51963 30.76863 0 0 0
213 -12.36134 -45.66944 30.02660 0 0 0
214 -13.14810 -45.60484 29.47042 0 0 0
215 -13.77694 -45.40616 28.72117 0 0 0
216 -14.62430 -45.74307 28.34942 0 0 0
217 -14.96830 -46.52152 27.82035 0 0 0
218 -15.63590 -47.28573 27.58891 0 0 0
219 -16.02733 -47.88565 26.95033 0 0 0
220 -16.23118 -48.45071 26.11968 0 0 0
221 -16.87861 -48.61867 25.44571 0 0 0
222 -17.42261 -49.26885 25.79297 0 0 0
223 -18.12822 -49.98297 25.77227 0 0 0
224 -19.07250 -50.07187 25.50474 0 0 0
225 -19.87494 -49.50252 25.35251 0 0 0
226 -20.62273 -49.51526 24.65097 0 0 0
227 -20.89035 -49.53636 23.71224 0 0 0
228 -21.29687 -49.33613 22.86372 0 0 0
229 -21.93396 -49.38926 22.09149 0 0 0
230 -22.62354 -49.96683 21.80567 0 0 0
231 -23.17591 -49.67911 21.07356 0 0 0
232 -24.11688 -50.00682 20.93372 0 0 0
233 -24.69422 -50.54883 20.32729 0 0 0
234 -25.63077 -50.53433 20.19169 0 0 0
235 -26.25690 -51.41929 20.27618 0 0 0
236 -26.66652 -52.24198 20.03097 0 0 0
237 -26.99791 -52.09315 19.12883 0 0 0
238 -27.75292 -52.29539 18.56692 0 0 0
239 -28.67139 -52.70883 18.38842 0 0 0
240 -28.56448 -52.44296 17.49102 0 0 0
241 -27.68283 -52.69501 17.05202 0 0 0
242 -11.16105 -45.43175 32.47318 0 0 0
243 -11.23894 -45.76271 33.38888 0 0 0
244 -10.56119 -46.18669 34.10103 0 0 0
245 -10.94042 -46.18184 34.98907 0 0 0
246 -11.18558 -46.93788 35.53533 0 0 0
247 -11.04308 -47.64154 36.19078 0 0 0
248 -10.99336 -47.87021 37.16190 0 0 0
249 -10.85168 -48.43016 37.99223 0 0 0
250 -10.98300 -49.00552 38.75900 0 0 0
251 -11.34008 -48.92018 39.66220 0 0 0
252 -12.03752 -49.10406 40.46293 0 0 0
253 -12.78999 -49.44047 40.93299 0 0 0
254 -13.39340 -49.88597 41.61366 0 0 0
255 -14.25101 -50.20932 42.05585 0 0 0
256 -13.87575 -50.84792 42.73041 0 0 0
257 -14.00356 -51.20831 43.71721 0 0 0
258 -14.15050 -51.40120 44.60026 0 0 0
259 -13.91113 -52.22561 45.09717 0 0 0
260 -13.74219 -53.12846 45.64067 0 0 0
261 -14.26723 -53.85188 45.91136 0 0 0
262 -14.31192 -54.29010 46.80997 0 0 0
263 -14.05298 -54.02403 47.66673 0 0 0
264 -13.43336 -54.60816 48.24732 0 0 0
265 -12.64968 -54.75243 48.75675 0 0 0
266 -12.29571 -55.64702 48.70369 0 0 0
267 -11.57859 -56.36481 48.88603 0 0 0
268 -12.44066 -56.69121 49.32008 0 0 0
269 -13.41448 -56.86743 49.27730 0 0 0
270 -14.02306 -57.53500 48.86667 0 0 0
271 -14.91162 -57.76464 49.17915 0 0 0
272 -10.34294 -45.61433 30.72479 0 0 0
273 -9.64593 -46.15230 30.24686 0 0 0
274 -8.69301 -46.41521 30.37456 0 0 0
275 -7.88704 -45.93233 29.94773 0 0 0
276 -6.93934 -45.82076 29.91716 0 0 0
277 -6.06105 -45.53700 29.57106 0 0 0
278 -5.12328 -45.84825 29.50487 0 0 0
279 -4.14082 -45.99256 29.37178 0 0 0
280 -3.31611 -46.13999 28.82767 0 0 0
281 -2.36337 -46.12648 28.86036 0 0 0
282 -1.51919 -46.22063 29.32157 0 0 0
283 -0.79977 -46.41724 28.66222 0 0 0
284 0.19873 -46.48253 28.42794 0 0 0
285 1.00936 -46.31870 27.71362 0 0 0
286 1.86361 -46.39478 27.26896 0 0 0
287 2.64928 -45.94140 27.66553 0 0 0
288 3.49333 -46.29745 27.81809 0 0 0
289 4.36293 -46.58854 27.44523 0 0 0
290 5.26157 -46.16893 27.07637 0 0 0
291 5.96901 -45.83782 26.54087 0 0 0
292 6.86134 -45.61930 26.32747 0 0 0
293 6.64497 -45.97027 25.41475 0 0 0
294 7.33591 -46.32307 24.85403 0 0 0
295 7.76952 -47.24550 24.66896 0 0 0
296 7.16114 -47.78193 24.06999 0 0 0
297 7.88078 -48.52600 23.94738 0 0 0
298 8.86912 -48.61086 24.09575 0 0 0
299 9.74522 -48.72783 23.57614 0 0 0
300 9.63286 -49.57810 24.07076 0 0 0
301 10.10739 -49.69340 24.97458 0 0 0
ITEM: TIMESTEP
2000
ITEM: NUMBER OF ATOMS
301
ITEM: BOX BOUNDS pp pp pp
-1.0000000000000000e+03 1.0000000000000000e+03
-1.0000000000000000e+03 1.0000000000000000e+03
-1.0000000000000000e+03 1.0000000000000000e+03
ITEM: ATOMS id x y z ix iy iz
1 -5.58297 -2.94447 6.70505 0 0 0
2 -4.90914 -2.61810 7.37042 0 0 0
3 -4.56559 -1.65992 7.28285 0 0 0
4 -5.13669 -1.34576 7.98721 0 0 0
5 -5.12749 -1.41568 9.01519 0 0 0
6 -5.24445 -1.36547 9.97091 0 0 0
7 -4.78023 -1.67111 10.83618 0 0 0
8 -3.90217 -1.22315 10.87038 0 0 0
9 -3.42849 -2.13038 10.79269 0 0 0
10 -3.23069 -1.97972 11.71448 0 0 0
11 -2.82004 -1.33765 12.43557 0 0 0
12 -1.89607 -1.47599 12.60893 0 0 0
13 -1.96767 -1.19444 13.52003 0 0 0
14 -2.59651 -1.71541 14.03703 0 0 0
15 -3.04652 -0.83422 14.03474 0 0 0
16 -2.95552 -0.41869 14.94456 0 0 0
17 -3.30886 -0.30856 15.83471 0 0 0
18 -3.11641 -0.37144 16.79247 0 0 0
19 -3.62062 0.14818 17.45439 0 0 0
20 -3.16144 -0.29367 18.23763 0 0 0
21 -2.77531 0.03118 19.09187 0 0 0
22 -2.80252 0.13616 20.00605 0 0 0
23 -2.83111 0.34754 20.94284 0 0 0
24 -2.00153 0.30849 21.40733 0 0 0
25 -1.21401 -0.11104 21.94134 0 0 0
26 -0.40114 -0.37654 22.53582 0 0 0
27 -0.19784 -1.18468 22.11858 0 0 0
28 -0.28222 -1.66549 23.01733 0 0 0
29 0.22493 -2.08127 23.79131 0 0 0
30 -0.18605 -2.31118 24.61511 0 0 0
31 0.04045 -2.83118 25.40589 0 0 0
32 -0.23136 -2.07505 25.97554 0 0 0
33 -0.94939 -1.64576 25.45493 0 0 0
34 -1.01599 -0.92758 26.04791 0 0 0
35 -1.48036 -0.63769 26.86825 0 0 0
36 -1.69953 -0.26917 27.71115 0 0 0
37 -2.35953 0.48499 27.94045 0 0 0
38 -2.76658 1.03475 28.50943 0 0 0
39 -3.58357 1.54250 28.53786 0 0 0
40 -3.95829 2.36794 28.96149 0 0 0
41 -4.45671 2.94340 29.51115 0 0 0
42 -4.56467 3.71821 30.09209 0 0 0
43 -4.44678 4.24129 30.95479 0 0 0
44 -4.91843 4.32708 31.80331 0 0 0
45 -5.35220 5.24899 32.03753 0 0 0
46 -6.18876 5.31755 32.69752 0 0 0
47 -6.50724 6.30369 32.72751 0 0 0
48 -6.58620 7.11978 33.24116 0 0 0
49 -6.75739 8.15014 33.36549 0 0 0
50 -6.48968 9.00585 33.90565 0 0 0
51 -6.89520 9.15832 34.77981 0 0 0
52 -7.63067 9.63766 35.18953 0 0 0
53 -8.32981 10.35966 35.21172 0 0 0
54 -7.91184 11.18284 34.89817 0 0 0
55 -8.21118 11.64571 35.71763 0 0 0
56 -8.39934 11.83731 36.64192 0 0 0
57 -9.14311 12.33029 36.87537 0 0 0
58 -8.84216 12.99074 37.51164 0 0 0
59 -8.17427 13.35516 38.11238 0 0 0
60 -7.39721 12.81806 37.88399 0 0 0
61 -7.55022 13.34924 37.05036 0 0 0
62 0.93383 -3.26534 25.25804 0 0 0
63 1.72529 -3.90360 25.31143 0 0 0
64 2.71188 -3.49876 25.26831 0 0 0
65 3.62449 -3.05307 25.18240 0 0 0
66 4.59382 -2.84172 25.02288 0 0 0
67 5.56769 -2.90520 25.20181 0 0 0
68 6.10701 -3.40421 25.79699 0 0 0
69 6.89004 -3.79278 26.30913 0 0 0
70 7.74759 -4.06972 26.81254 0 0 0
71 8.70488 -3.88238 26.66409 0 0 0
72 9.67703 -3.96133 26.93021 0 0 0
73 10.03255 -3.18260 27.30408 0 0 0
74 10.98228 -2.86807 27.44815 0 0 0
75 11.75088 -3.01275 28.08123 0 0 0
76 12.69211 -2.69238 28.33513 0 0 0
77 13.30967 -1.88023 28.51598 0 0 0
78 13.50805 -1.61748 29.41183 0 0 0
79 14.37660 -2.00565 29.70278 0 0 0
80 14.75596 -2.13645 28.80936 0 0 0
81 15.51742 -2.73754 28.84492 0 0 0
82 16.22118 -3.26115 28.37060 0 0 0
83 16.72903 -3.99572 28.67945 0 0 0
84 17.30692 -4.67378 28.54720 0 0 0
85 18.03494 -4.94614 29.09276 0 0 0
86 18.84674 -5.09585 29.47010 0 0 0
87 19.59612 -5.55919 29.74435 0 0 0
88 19.29727 -6.30038 30.43549 0 0 0
89 18.32653 -6.39444 30.56596 0 0 0
90 17.57759 -5.81320 30.48497 0 0 0
91 16.79446 -5.14967 30.66063 0 0 0
92 -0.36666 -3.67808 25.68929 0 0 0
93 -1.34572 -3.96560 25.70397 0 0 0
94 -1.60753 -4.66162 24.97314 0 0 0
95 -2.54174 -4.96527 25.30975 0 0 0
96 -3.01989 -5.88984 25.45139 0 0 0
97 -3.71400 -5.96632 24.74636 0 0 0
98 -4.26027 -6.19369 23.97433 0 0 0
99 -5.11400 -6.26347 23.45361 0 0 0
100 -6.04269 -6.54681 23.42278 0 0 0
101 -6.71507 -7.38332 23.64608 0 0 0
102 -7.36688 -8.01955 23.95960 0 0 0
103 -7.86240 -8.92728 23.98946 0 0 0
104 -8.91119 -8.86763 23.70617 0 0 0
105 -9.64481 -9.48642 23.56273 0 0 0
106 -10.49870 -9.64628 23.98286 0 0 0
107 -11.19160 -10.33792 24.15128 0 0 0
108 -11.22476 -10.92171 23.35721 0 0 0
109 -11.40225 -11.89975 23.18044 0 0 0
110 -11.77120 -12.79720 23.06097 0 0 0
111 -12.48604 -13.42621 23.29776 0 0 0
112 -13.05108 -14.19788 23.55272 0 0 0
113 -13.82092 -14.60710 23.21297 0 0 0
114 -14.43334 -15.38519 23.36166 0 0 0
115 -14.52404 -16.24430 22.92353 0 0 0
116 -14.89257 -17.09978 22.59853 0 0 0
117 -14.88345 -18.16894 22.94843 0 0 0
118 -15.29138 -18.93606 22.51089 0 0 0
119 -15.25311 -19.87155 22.14032 0 0 0
120 -15.99710 -20.47791 22.04088 0 0 0
121 -16.72883 -21.02562 21.94605 0 0 0
122 -16.66794 -21.58239 21.18646 0 0 0
123 -16.62983 -22.52863 21.02564 0 0 0
124 -16.42181 -22.87284 20.14041 0 0 0
125 -15.80229 -23.34980 19.53303 0 0 0
126 -15.61015 -23.69045 18.61777 0 0 0
127 -15.27496 -24.01788 17.77046 0 0 0
128 -15.64898 -23.59706 16.96738 0 0 0
129 -15.76686 -23.89537 16.04654 0 0 0
130 -15.40187 -23.99003 15.11378 0 0 0
131 -15.12752 -23.55671 14.30637 0 0 0
132 -14.65562 -23.48734 13.46728 0 0 0
133 -14.05358 -23.09078 12.78536 0 0 0
134 -13.76130 -23.36452 11.84205 0 0 0
135 -13.63572 -23.81081 11.00008 0 0 0
136 -13.08581 -24.17469 10.19270 0 0 0
137 -12.17986 -24.02801 9.91350 0 0 0
138 -11.77324 -23.83729 9.09025 0 0 0
139 -11.51736 -23.06290 9.62418 0 0 0
140 -11.45071 -22.54358 8.80230 0 0 0
141 -12.03519 -21.84151 8.41888 0 0 0
142 -11.22831 -21.49287 7.89296 0 0 0
143 -10.48267 -21.03620 7.55048 0 0 0
144 -10.28602 -21.32709 6.66387 0 0 0
145 -10.56040 -20.42075 6.34552 0 0 0
146 -11.04075 -20.46304 5.46019 0 0 0
147 -11.01474 -20.45068 4.51935 0 0 0
148 -10.75052 -20.91143 3.65870 0 0 0
149 -9.96068 -21.42018 3.38236 0 0 0
150 -9.69443 -20.52439 3.32977 0 0 0
151 -10.10818 -20.09324 2.52835 0 0 0
152 -17.56628 -21.00100 21.42802 0 0 0
153 -17.87379 -20.08431 21.43442 0 0 0
154 -18.78012 -19.94616 21.55495 0 0 0
155 -19.74141 -20.00988 21.33080 0 0 0
156 -20.49421 -19.66862 20.84608 0 0 0
157 -21.32671 -19.25110 20.97487 0 0 0
158 -21.86790 -18.53686 21.41366 0 0 0
159 -22.82005 -18.35334 21.41808 0 0 0
160 -23.51903 -17.67240 21.32771 0 0 0
161 -24.47215 -17.50793 21.52111 0 0 0
162 -25.32083 -17.82862 21.93279 0 0 0
163 -25.98369 -18.44578 22.25016 0 0 0
164 -26.92038 -18.35980 22.51423 0 0 0
165 -27.78033 -18.21090 22.98735 0 0 0
166 -28.25929 -17.84116 22.17492 0 0 0
167 -29.18714 -17.64129 22.32071 0 0 0
168 -30.12487 -17.55095 22.29874 0 0 0
169 -31.04683 -17.69977 22.29545 0 0 0
170 -32.02790 -17.83709 22.50302 0 0 0
171 -32.38118 -18.58518 22.99914 0 0 0
172 -32.90538 -18.95037 23.72959 0 0 0
173 -33.63932 -19.26991 24.32077 0 0 0
174 -34.34724 -19.57925 24.73245 0 0 0
175 -34.09195 -20.47683 25.17098 0 0 0
176 -34.59853 -20.59924 26.00704 0 0 0
177 -35.46227 -20.85902 26.56269 0 0 0
178 -36.44837 -20.73045 26.37958 0 0 0
179 -37.20488 -21.14942 26.82150 0 0 0
180 -36.75982 -21.73676 27.45866 0 0 0
181 -36.60934 -21.82672 28.45252 0 0 0