ITEM: TIMESTEP
0
ITEM: NUMBER OF ATOMS
401
ITEM: BOX BOUNDS pp pp pp
-1.0000000000000000e+03 1.0000000000000000e+03
-1.0000000000000000e+03 1.0000000000000000e+03
-1.0000000000000000e+03 1.0000000000000000e+03
ITEM: ATOMS id x y z ix iy iz
1 0.00000 0.00000 0.00000 0 0 0
2 0.00000 0.00000 1.00000 0 0 0
3 0.00000 -0.50000 1.86603 0 0 0
4 0.00000 0.00000 2.73205 0 0 0
5 0.00000 -0.50000 3.59808 0 0 0
6 0.00000 0.00000 4.46410 0 0 0
7 0.00000 -0.50000 5.33013 0 0 0
8 0.00000 0.00000 6.19615 0 0 0
9 0.00000 -0.50000 7.06218 0 0 0
10 0.00000 0.00000 7.92820 0 0 0
11 0.00000 -0.50000 8.79423 0 0 0
12 0.00000 0.00000 9.66025 0 0 0
13 0.00000 -0.50000 10.52628 0 0 0
14 0.00000 0.00000 11.39230 0 0 0
15 0.00000 -0.50000 12.25833 0 0 0
16 0.00000 0.00000 13.12436 0 0 0
17 0.00000 -0.50000 13.99038 0 0 0
18 0.00000 0.00000 14.85641 0 0 0
19 0.00000 -0.50000 15.72243 0 0 0
20 0.00000 0.00000 16.58846 0 0 0
21 0.00000 -0.50000 17.45448 0 0 0
22 0.00000 0.00000 18.32051 0 0 0
23 0.00000 -0.50000 19.18653 0 0 0
24 0.00000 0.00000 20.05256 0 0 0
25 0.00000 -0.50000 20.91858 0 0 0
26 0.00000 0.00000 21.78461 0 0 0
27 0.00000 -0.50000 22.65064 0 0 0
28 0.00000 0.00000 23.51666 0 0 0
29 0.00000 -0.50000 24.38269 0 0 0
30 0.00000 0.00000 25.24871 0 0 0
31 0.00000 -0.50000 26.11474 0 0 0
32 0.00000 0.00000 26.98076 0 0 0
33 0.00000 -0.50000 27.84679 0 0 0
34 0.00000 0.00000 28.71281 0 0 0
35 0.00000 -0.50000 29.57884 0 0 0
36 0.00000 0.00000 30.44486 0 0 0
37 0.00000 -0.50000 31.31089 0 0 0
38 0.00000 0.00000 32.17691 0 0 0
39 0.00000 -0.50000 33.04294 0 0 0
40 0.00000 0.00000 33.90897 0 0 0
41 0.00000 -0.50000 34.77499 0 0 0
42 -0.08364 0.14623 35.53354 0 0 0
43 -0.16729 0.32660 36.51357 0 0 0
44 -0.25093 1.26553 36.84738 0 0 0
45 -0.33458 1.44590 37.82741 0 0 0
46 -0.41822 2.38483 38.16122 0 0 0
47 -0.50187 2.56520 39.14126 0 0 0
48 -0.58551 3.50413 39.47506 0 0 0
49 -0.66915 3.68450 40.45510 0 0 0
50 -0.75280 4.62343 40.78890 0 0 0
51 -0.83644 4.80380 41.76894 0 0 0
52 -0.92009 5.74273 42.10275 0 0 0
53 -1.00373 5.92310 43.08278 0 0 0
54 -1.08738 6.86202 43.41659 0 0 0
55 -1.17102 7.04240 44.39662 0 0 0
56 -1.25466 7.98132 44.73043 0 0 0
57 -1.33831 8.16170 45.71046 0 0 0
58 -1.42195 9.10062 46.04427 0 0 0
59 -1.50560 9.28100 47.02430 0 0 0
60 -1.58924 10.21992 47.35811 0 0 0
61 -1.67289 10.40030 48.33815 0 0 0
62 -1.75653 11.33922 48.67195 0 0 0
63 -1.84017 11.51960 49.65199 0 0 0
64 -1.92382 12.45852 49.98579 0 0 0
65 -2.00746 12.63890 50.96583 0 0 0
66 -2.09111 13.57782 51.29964 0 0 0
67 -2.17475 13.75820 52.27967 0 0 0
68 -2.25839 14.69712 52.61348 0 0 0
69 -2.34204 14.87750 53.59351 0 0 0
70 -2.42568 15.81642 53.92732 0 0 0
71 -2.50933 15.99680 54.90735 0 0 0
72 -2.59297 16.93572 55.24116 0 0 0
73 -2.67662 17.11610 56.22120 0 0 0
74 -2.76026 18.05502 56.55500 0 0 0
75 -2.84390 18.23540 57.53504 0 0 0
76 -2.92755 19.17432 57.86884 0 0 0
77 -3.01119 19.35469 58.84888 0 0 0
78 -3.09484 20.29362 59.18269 0 0 0
79 -3.17848 20.47399 60.16272 0 0 0
80 -3.26213 21.41292 60.49653 0 0 0
81 -3.34577 21.59329 61.47656 0 0 0
82 0.85495 -1.01074 34.86556 0 0 0
83 1.70991 -1.49833 34.68864 0 0 0
84 2.56486 -1.89536 35.02244 0 0 0
85 3.41981 -2.38295 34.84551 0 0 0
86 4.27477 -2.77998 35.17932 0 0 0
87 5.12972 -3.26757 35.00239 0 0 0
88 5.98467 -3.66460 35.33620 0 0 0
89 6.83963 -4.15219 35.15927 0 0 0
90 7.69458 -4.54922 35.49308 0 0 0
91 8.54953 -5.03681 35.31615 0 0 0
92 9.40449 -5.43384 35.64995 0 0 0
93 10.25944 -5.92144 35.47302 0 0 0
94 11.11439 -6.31846 35.80683 0 0 0
95 11.96935 -6.80606 35.62990 0 0 0
96 12.82430 -7.20308 35.96371 0 0 0
97 13.67925 -7.69068 35.78678 0 0 0
98 14.53421 -8.08770 36.12059 0 0 0
99 15.38916 -8.57530 35.94366 0 0 0
100 16.24411 -8.97232 36.27746 0 0 0
101 17.09907 -9.45992 36.10054 0 0 0
102 17.95402 -9.85694 36.43434 0 0 0
103 18.80897 -10.34454 36.25741 0 0 0
104 19.66393 -10.74156 36.59122 0 0 0
105 20.51888 -11.22916 36.41429 0 0 0
106 21.37384 -11.62618 36.74810 0 0 0
107 22.22879 -12.11378 36.57117 0 0 0
108 23.08374 -12.51080 36.90498 0 0 0
109 23.93870 -12.99840 36.72805 0 0 0
110 24.79365 -13.39542 37.06185 0 0 0
111 25.64860 -13.88302 36.88493 0 0 0
112 26.50356 -14.28004 37.21873 0 0 0
113 27.35851 -14.76764 37.04180 0 0 0
114 28.21346 -15.16466 37.37561 0 0 0
115 29.06842 -15.65226 37.19868 0 0 0
116 29.92337 -16.04928 37.53249 0 0 0
117 30.77832 -16.53688 37.35556 0 0 0
118 31.63328 -16.93390 37.68937 0 0 0
119 32.48823 -17.42150 37.51244 0 0 0
120 33.34318 -17.81852 37.84624 0 0 0
121 34.19814 -18.30612 37.66931 0 0 0
122 -0.77131 -1.13620 34.79313 0 0 0
123 -1.54262 -1.69624 34.49073 0 0 0
124 -2.31393 -2.23814 34.82454 0 0 0
125 -3.08524 -2.79817 34.52214 0 0 0
126 -3.85655 -3.34007 34.85595 0 0 0
127 -4.62785 -3.90011 34.55355 0 0 0
128 -5.39916 -4.44201 34.88736 0 0 0
129 -6.17047 -5.00204 34.58497 0 0 0
130 -6.94178 -5.54394 34.91877 0 0 0
131 -7.71309 -6.10398 34.61638 0 0 0
132 -8.48440 -6.64588 34.95018 0 0 0
133 -9.25571 -7.20591 34.64779 0 0 0
134 -10.02702 -7.74781 34.98159 0 0 0
135 -10.79833 -8.30785 34.67920 0 0 0
136 -11.56964 -8.84974 35.01301 0 0 0
137 -12.34095 -9.40978 34.71061 0 0 0
138 -13.11226 -9.95168 35.04442 0 0 0
139 -13.88356 -10.51171 34.74202 0 0 0
140 -14.65487 -11.05361 35.07583 0 0 0
141 -15.42618 -11.61365 34.77343 0 0 0
142 -16.19749 -12.15555 35.10724 0 0 0
143 -16.96880 -12.71558 34.80485 0 0 0
144 -17.74011 -13.25748 35.13865 0 0 0
145 -18.51142 -13.81752 34.83626 0 0 0
146 -19.28273 -14.35942 35.17006 0 0 0
147 -20.05404 -14.91945 34.86767 0 0 0
148 -20.82535 -15.46135 35.20148 0 0 0
149 -21.59666 -16.02139 34.89908 0 0 0
150 -22.36797 -16.56329 35.23289 0 0 0
151 -23.13927 -17.12332 34.93049 0 0 0
152 -23.91058 -17.66522 35.26430 0 0 0
153 -24.68189 -18.22526 34.96190 0 0 0
154 -25.45320 -18.76716 35.29571 0 0 0
155 -26.22451 -19.32719 34.99331 0 0 0
156 -26.99582 -19.86909 35.32712 0 0 0
157 -27.76713 -20.42913 35.02473 0 0 0
158 -28.53844 -20.97103 35.35853 0 0 0
159 -29.30975 -21.53106 35.05614 0 0 0
160 -30.08106 -22.07296 35.38994 0 0 0
161 -30.85237 -22.63300 35.08755 0 0 0
162 -31.07899 -23.30010 35.79720 0 0 0
163 -31.30562 -24.23266 36.07823 0 0 0
164 -31.53225 -24.45556 37.02636 0 0 0
165 -31.75888 -25.38812 37.30738 0 0 0
166 -31.98550 -25.61103 38.25552 0 0 0
167 -32.21213 -26.54358 38.53654 0 0 0
168 -32.43876 -26.76649 39.48467 0 0 0
169 -32.66539 -27.69905 39.76570 0 0 0
170 -32.89202 -27.92195 40.71383 0 0 0
171 -33.11864 -28.85451 40.99486 0 0 0
172 -33.34527 -29.07741 41.94299 0 0 0
173 -33.57190 -30.00997 42.22401 0 0 0
174 -33.79853 -30.23287 43.17214 0 0 0
175 -34.02515 -31.16543 43.45317 0 0 0
176 -34.25178 -31.38834 44.40130 0 0 0
177 -34.47841 -32.32089 44.68233 0 0 0
178 -34.70504 -32.54380 45.63046 0 0 0
179 -34.93167 -33.47636 45.91148 0 0 0
180 -35.15829 -33.69926 46.85962 0 0 0
181 -35.38492 -34.63182 47.14064 0 0 0
182 -35.61155 -34.85472 48.08877 0 0 0
183 -35.83818 -35.78728 48.36980 0 0 0
184 -36.06480 -36.01018 49.31793 0 0 0
185 -36.29143 -36.94274 49.59895 0 0 0
186 -36.51806 -37.16565 50.54709 0 0 0
187 -36.74469 -38.09821 50.82811 0 0 0
188 -36.97132 -38.32111 51.77624 0 0 0
189 -37.19794 -39.25367 52.05727 0 0 0
190 -37.42457 -39.47657 53.00540 0 0 0
191 -37.65120 -40.40913 53.28643 0 0 0
192 -37.87783 -40.63203 54.23456 0 0 0
193 -38.10445 -41.56459 54.51558 0 0 0
194 -38.33108 -41.78750 55.46371 0 0 0
195 -38.55771 -42.72005 55.74474 0 0 0
196 -38.78434 -42.94296 56.69287 0 0 0
197 -39.01097 -43.87552 56.97390 0 0 0
198 -39.23759 -44.09842 57.92203 0 0 0
199 -39.46422 -45.03098 58.20305 0 0 0
200 -39.69085 -45.25388 59.15119 0 0 0
201 -39.91748 -46.18644 59.43221 0 0 0
202 -30.60637 -23.11324 34.24562 0 0 0
203 -30.36037 -23.10817 33.27636 0 0 0
204 -30.11437 -23.94504 32.78734 0 0 0
205 -29.86837 -23.93998 31.81809 0 0 0
206 -29.62236 -24.77684 31.32907 0 0 0
207 -29.37636 -24.77178 30.35982 0 0 0
208 -29.13036 -25.60865 29.87080 0 0 0
209 -28.88436 -25.60358 28.90154 0 0 0
210 -28.63836 -26.44045 28.41253 0 0 0
211 -28.39236 -26.43539 27.44327 0 0 0
212 -28.14636 -27.27225 26.95426 0 0 0
213 -27.90036 -27.26719 25.98500 0 0 0
214 -27.65436 -28.10406 25.49599 0 0 0
215 -27.40836 -28.09899 24.52673 0 0 0
216 -27.16236 -28.93586 24.03772 0 0 0
217 -26.91636 -28.93080 23.06846 0 0 0
218 -26.67036 -29.76766 22.57945 0 0 0
219 -26.42436 -29.76260 21.61019 0 0 0
220 -26.17836 -30.59947 21.12117 0 0 0
221 -25.93236 -30.59440 20.15192 0 0 0
222 -25.68636 -31.43127 19.66290 0 0 0
223 -25.44036 -31.42621 18.69365 0 0 0
224 -25.19436 -32.26307 18.20463 0 0 0
225 -24.94836 -32.25801 17.23538 0 0 0
226 -24.70236 -33.09488 16.74636 0 0 0
227 -24.45636 -33.08981 15.77710 0 0 0
228 -24.21036 -33.92668 15.28809 0 0 0
229 -23.96436 -33.92162 14.31883 0 0 0
230 -23.71836 -34.75848 13.82982 0 0 0
231 -23.47236 -34.75342 12.86056 0 0 0
232 -23.22636 -35.59029 12.37155 0 0 0
233 -22.98036 -35.58522 11.40229 0 0 0
234 -22.73436 -36.42209 10.91328 0 0 0
235 -22.48836 -36.41703 9.94402 0 0 0
236 -22.24236 -37.25389 9.45500 0 0 0
237 -21.99636 -37.24883 8.48575 0 0 0
238 -21.75036 -38.08570 7.99673 0 0 0
239 -21.50436 -38.08063 7.02748 0 0 0
240 -21.25836 -38.91750 6.53846 0 0 0
241 -21.01236 -38.91244 5.56921 0 0 0
242 -31.64414 -22.04648 34.91700 0 0 0
243 -32.43592 -21.45327 35.06256 0 0 0
244 -33.22770 -21.03060 34.62161 0 0 0
245 -34.01947 -20.43739 34.76717 0 0 0
246 -34.81125 -20.01472 34.32621 0 0 0
247 -35.60303 -19.42151 34.47178 0 0 0
248 -36.39481 -18.99884 34.03082 0 0 0
249 -37.18658 -18.40563 34.17638 0 0 0
250 -37.97836 -17.98296 33.73543 0 0 0
251 -38.77014 -17.38975 33.88099 0 0 0
252 -39.56192 -16.96709 33.44003 0 0 0
253 -40.35369 -16.37387 33.58559 0 0 0
254 -41.14547 -15.95121 33.14464 0 0 0
255 -41.93725 -15.35800 33.29020 0 0 0
256 -42.72902 -14.93533 32.84924 0 0 0
257 -43.52080 -14.34212 32.99481 0 0 0
258 -44.31258 -13.91945 32.55385 0 0 0
259 -45.10436 -13.32624 32.69941 0 0 0
260 -45.89613 -12.90357 32.25846 0 0 0
261 -46.68791 -12.31036 32.40402 0 0 0
262 -47.47969 -11.88769 31.96306 0 0 0
263 -48.27146 -11.29448 32.10862 0 0 0
264 -49.06324 -10.87182 31.66767 0 0 0
265 -49.85502 -10.27860 31.81323 0 0 0
266 -50.64680 -9.85594 31.37227 0 0 0
267 -51.43857 -9.26273 31.51784 0 0 0
268 -52.23035 -8.84006 31.07688 0 0 0
269 -53.02213 -8.24685 31.22244 0 0 0
270 -53.81391 -7.82418 30.78149 0 0 0
271 -54.60568 -7.23097 30.92705 0 0 0
272 -55.39746 -6.80830 30.48609 0 0 0
273 -56.18924 -6.21509 30.63165 0 0 0
274 -56.98101 -5.79242 30.19070 0 0 0
275 -57.77279 -5.19921 30.33626 0 0 0
276 -58.56457 -4.77655 29.89530 0 0 0
277 -59.35635 -4.18333 30.04087 0 0 0
278 -60.14812 -3.76067 29.59991 0 0 0
279 -60.93990 -3.16746 29.74547 0 0 0
280 -61.73168 -2.74479 29.30452 0 0 0
281 -62.52345 -2.15158 29.45008 0 0 0
282 -62.25122 -1.35961 29.99659 0 0 0
283 -61.97899 -0.94700 30.86587 0 0 0
284 -61.70675 0.01212 30.94318 0 0 0
285 -61.43452 0.42473 31.81246 0 0 0
286 -61.16228 1.38385 31.88977 0 0 0
287 -60.89005 1.79645 32.75904 0 0 0
288 -60.61781 2.75557 32.83635 0 0 0
289 -60.34558 3.16818 33.70563 0 0 0
290 -60.07334 4.12730 33.78294 0 0 0
291 -59.80111 4.53991 34.65222 0 0 0
292 -59.52887 5.49903 34.72953 0 0 0
293 -59.25664 5.91164 35.59881 0 0 0
294 -58.98441 6.87076 35.67612 0 0 0
295 -58.71217 7.28337 36.54539 0 0 0
296 -58.43994 8.24249 36.62270 0 0 0
297 -58.16770 8.65509 37.49198 0 0 0
298 -57.89547 9.61421 37.56929 0 0 0
299 -57.62323 10.02682 38.43857 0 0 0
300 -57.35100 10.98594 38.51588 0 0 0
301 -57.07876 11.39855 39.38516 0 0 0
302 -56.80653 12.35767 39.46247 0 0 0
303 -56.53429 12.77028 40.33174 0 0 0
304 -56.26206 13.72940 40.40905 0 0 0
305 -55.98982 14.14200 41.27833 0 0 0
306 -55.71759 15.10112 41.35564 0 0 0
307 -55.44536 15.51373 42.22492 0 0 0
308 -55.17312 16.47285 42.30223 0 0 0
309 -54.90089 16.88546 43.17151 0 0 0
310 -54.62865 17.84458 43.24882 0 0 0
311 -54.35642 18.25719 44.11809 0 0 0
312 -54.08418 19.21631 44.19540 0 0 0
313 -53.81195 19.62892 45.06468 0 0 0
314 -53.53971 20.58804 45.14199 0 0 0
315 -53.26748 21.00064 46.01127 0 0 0
316 -52.99524 21.95976 46.08858 0 0 0
317 -52.72301 22.37237 46.95786 0 0 0
318 -52.45078 23.33149 47.03517 0 0 0
319 -52.17854 23.74410 47.90444 0 0 0
320 -51.90631 24.70322 47.98175 0 0 0
321 -51.63407 25.11583 48.85103 0 0 0
322 -63.23695 -2.65959 29.93261 0 0 0
323 -63.95045 -3.34082 30.09649 0 0 0
324 -64.66394 -3.53951 30.76839 0 0 0
325 -65.37744 -4.22073 30.93227 0 0 0
326 -66.09094 -4.41942 31.60417 0 0 0
327 -66.80443 -5.10064 31.76805 0 0 0
328 -67.51793 -5.29933 32.43995 0 0 0
329 -68.23142 -5.98055 32.60383 0 0 0
330 -68.94492 -6.17924 33.27572 0 0 0
331 -69.65842 -6.86047 33.43960 0 0 0
332 -70.37191 -7.05915 34.11150 0 0 0
333 -71.08541 -7.74038 34.27538 0 0 0
334 -71.79891 -7.93907 34.94728 0 0 0
335 -72.51240 -8.62029 35.11116 0 0 0
336 -73.22590 -8.81898 35.78306 0 0 0
337 -73.93939 -9.50020 35.94694 0 0 0
338 -74.65289 -9.69889 36.61883 0 0 0
339 -75.36639 -10.38012 36.78271 0 0 0
340 -76.07988 -10.57880 37.45461 0 0 0
341 -76.79338 -11.26003 37.61849 0 0 0
342 -77.50688 -11.45871 38.29039 0 0 0
343 -78.22037 -12.13994 38.45427 0 0 0
344 -78.93387 -12.33863 39.12617 0 0 0
345 -79.64736 -13.01985 39.29005 0 0 0
346 -80.36086 -13.21854 39.96194 0 0 0
347 -81.07436 -13.89976 40.12582 0 0 0
348 -81.78785 -14.09845 40.79772 0 0 0
349 -82.50135 -14.77968 40.96160 0 0 0
350 -83.21485 -14.97836 41.63350 0 0 0
351 -83.92834 -15.65959 41.79738 0 0 0
352 -84.64184 -15.85828 42.46928 0 0 0
353 -85.35533 -16.53950 42.63316 0 0 0
354 -86.06883 -16.73819 43.30505 0 0 0
355 -86.78233 -17.41941 43.46894 0 0 0
356 -87.49582 -17.61810 44.14083 0 0 0
357 -88.20932 -18.29932 44.30471 0 0 0
358 -88.92282 -18.49801 44.97661 0 0 0
359 -89.63631 -19.17924 45.14049 0 0 0
360 -90.34981 -19.37792 45.81239 0 0 0
361 -91.06330 -20.05915 45.97627 0 0 0
362 -62.87510 -1.84147 28.56680 0 0 0
363 -63.22674 -1.13127 27.95691 0 0 0
364 -63.57838 -1.30435 27.03691 0 0 0
365 -63.93002 -0.59416 26.42702 0 0 0
366 -64.28166 -0.76724 25.50703 0 0 0
367 -64.63330 -0.05704 24.89713 0 0 0
368 -64.98494 -0.23012 23.97714 0 0 0
369 -65.33658 0.48008 23.36725 0 0 0
370 -65.68822 0.30700 22.44725 0 0 0
371 -66.03986 1.01720 21.83736 0 0 0
372 -66.39150 0.84411 20.91737 0 0 0
373 -66.74314 1.55431 20.30748 0 0 0
374 -67.09478 1.38123 19.38748 0 0 0
375 -67.44642 2.09143 18.77759 0 0 0
376 -67.79806 1.91835 17.85759 0 0 0
377 -68.14970 2.62855 17.24770 0 0 0
378 -68.50134 2.45547 16.32771 0 0 0
379 -68.85298 3.16567 15.71782 0 0 0
380 -69.20462 2.99258 14.79782 0 0 0
381 -69.55626 3.70278 14.18793 0 0 0
382 -69.90790 3.52970 13.26793 0 0 0
383 -70.25954 4.23990 12.65804 0 0 0
384 -70.61118 4.06682 11.73805 0 0 0
385 -70.96282 4.77702 11.12816 0 0 0
386 -71.31446 4.60394 10.20816 0 0 0
387 -71.66610 5.31413 9.59827 0 0 0
388 -72.01774 5.14105 8.67828 0 0 0
389 -72.36938 5.85125 8.06839 0 0 0
390 -72.72102 5.67817 7.14839 0 0 0
391 -73.07267 6.38837 6.53850 0 0 0
392 -73.42431 6.21529 5.61850 0 0 0
393 -73.77595 6.92549 5.00861 0 0 0
394 -74.12759 6.75241 4.08862 0 0 0
395 -74.47923 7.46260 3.47873 0 0 0
396 -74.83087 7.28952 2.55873 0 0 0
397 -75.18251 7.99972 1.94884 0 0 0
398 -75.53415 7.82664 1.02884 0 0 0
399 -75.88579 8.53684 0.41895 0 0 0
400 -76.23743 8.36376 -0.50104 0 0 0
401 -76.58907 9.07396 -1.11093 0 0 0
ITEM: TIMESTEP
1000
ITEM: NUMBER OF ATOMS
401
ITEM: BOX BOUNDS pp pp pp
-1.0000000000000000e+03 1.0000000000000000e+03
-1.0000000000000000e+03 1.0000000000000000e+03
-1.0000000000000000e+03 1.0000000000000000e+03
ITEM: ATOMS id x y z ix iy iz
1 2.04922 1.89095 4.81058 0 0 0
2 1.40041 1.99788 5.54208 0 0 0
3 1.06503 2.75004 6.07920 0 0 0
4 0.96936 2.14950 6.84148 0 0 0
5 0.05236 2.16538 7.22888 0 0 0
6 0.23808 2.16833 8.22743 0 0 0
7 1.21995 1.99978 8.29369 0 0 0
8 1.45606 2.53053 9.11036 0 0 0
9 1.55210 1.61046 9.42411 0 0 0
10 2.50550 1.74993 9.68674 0 0 0
11 3.21110 1.50195 10.39238 0 0 0
12 2.97279 1.82175 11.34060 0 0 0
13 2.37446 1.65375 12.11162 0 0 0
14 1.67094 0.97855 12.29460 0 0 0
15 1.63059 0.87702 13.26608 0 0 0
16 1.49656 0.43831 14.15881 0 0 0
17 2.18598 0.41436 14.84655 0 0 0
18 2.48117 0.30565 15.78130 0 0 0
19 2.55320 0.28134 16.80825 0 0 0
20 2.10952 0.54866 17.69350 0 0 0
21 1.93335 0.27194 18.60095 0 0 0
22 2.08994 -0.08152 19.47142 0 0 0
23 1.95802 -0.29669 20.41993 0 0 0
24 1.19273 -0.71949 20.78005 0 0 0
25 1.02357 -0.38194 21.72215 0 0 0
26 1.01778 -0.19168 22.67095 0 0 0
27 1.26251 -0.00189 23.60279 0 0 0
28 1.60646 -0.28573 24.49630 0 0 0
29 2.58747 -0.34254 24.89037 0 0 0
30 2.64084 0.07847 25.77746 0 0 0
31 2.72065 0.62581 26.65232 0 0 0
32 2.54096 -0.28388 27.22428 0 0 0
33 2.34080 -0.80086 28.04891 0 0 0
34 1.87226 -0.60254 28.99246 0 0 0
35 1.45431 -0.58740 29.85130 0 0 0
36 1.19327 -1.05845 30.66573 0 0 0
37 0.55010 -1.36914 31.44405 0 0 0
38 0.05193 -1.63871 32.28306 0 0 0
39 0.20367 -1.93121 33.19488 0 0 0
40 0.85696 -2.09523 33.84380 0 0 0
41 0.46359 -2.52160 34.65728 0 0 0
42 0.94064 -1.74085 35.01464 0 0 0
43 1.17908 -0.88642 35.43164 0 0 0
44 1.37224 -0.20583 36.10020 0 0 0
45 1.31724 0.38545 36.84728 0 0 0
46 1.03159 0.87235 37.61293 0 0 0
47 0.77530 1.61514 38.24137 0 0 0
48 1.12962 2.38392 38.55696 0 0 0
49 1.43278 2.88513 39.41871 0 0 0
50 1.38435 3.75143 39.75406 0 0 0
51 1.29360 4.49768 40.40395 0 0 0
52 1.56424 5.38325 40.71108 0 0 0
53 0.91322 5.69440 41.36838 0 0 0
54 0.16528 5.88263 41.94352 0 0 0
55 0.17429 6.42245 42.71114 0 0 0
56 -0.06624 6.85768 43.65244 0 0 0
57 -0.01305 7.20419 44.63894 0 0 0
58 -0.50860 7.47695 45.41719 0 0 0
59 -0.64292 8.09819 46.21211 0 0 0
60 -1.06976 8.30398 46.99705 0 0 0
61 -1.22766 9.06849 47.74254 0 0 0
62 -1.23919 10.04633 48.08570 0 0 0
63 -2.19440 10.38045 47.88857 0 0 0
64 -2.62195 10.61128 48.69743 0 0 0
65 -2.73161 11.51562 49.19569 0 0 0
66 -2.76060 11.89027 50.11162 0 0 0
67 -3.21909 12.14472 50.93295 0 0 0
68 -3.80977 12.91570 51.26523 0 0 0
69 -3.99309 13.71845 51.75575 0 0 0
70 -3.64624 14.40212 52.36411 0 0 0
71 -3.37477 15.07378 53.08223 0 0 0
72 -3.58973 15.93613 53.50465 0 0 0
73 -3.71039 16.88996 53.84517 0 0 0
74 -3.94898 17.53595 54.47535 0 0 0
75 -4.29878 17.47476 55.36583 0 0 0
76 -4.45560 18.36099 55.63634 0 0 0
77 -3.96980 19.22861 55.74204 0 0 0
78 -4.15894 19.74655 56.57222 0 0 0
79 -4.94008 19.77557 57.14610 0 0 0
80 -5.64730 20.15521 56.54274 0 0 0
81 -6.32005 20.14379 55.77220 0 0 0
82 0.97162 -3.36276 34.71461 0 0 0
83 1.82525 -3.71729 34.43679 0 0 0
84 2.49623 -4.45958 34.35786 0 0 0
85 3.31663 -4.71834 33.92767 0 0 0
86 3.52416 -5.01753 34.81321 0 0 0
87 4.46600 -4.60764 34.89502 0 0 0
88 5.24751 -5.13041 34.97831 0 0 0
89 6.23660 -4.92512 35.24689 0 0 0
90 7.09883 -5.13968 35.56161 0 0 0
91 7.89891 -5.57768 35.92120 0 0 0
92 8.84064 -5.87633 35.65907 0 0 0
93 9.27197 -6.68985 35.94984 0 0 0
94 10.26512 -6.41102 35.76234 0 0 0
95 11.20948 -6.45701 35.53985 0 0 0
96 12.01734 -6.76396 35.00366 0 0 0
97 12.96787 -7.16806 34.93479 0 0 0
98 13.65742 -7.83891 35.32175 0 0 0
99 14.38997 -8.47247 35.14842 0 0 0
100 15.19918 -8.38110 34.62170 0 0 0
101 15.55738 -9.21866 34.28810 0 0 0
102 16.54102 -9.17731 34.11404 0 0 0
103 17.43387 -8.69642 34.21937 0 0 0
104 18.47312 -8.65163 34.39142 0 0 0
105 19.35446 -8.85398 34.08431 0 0 0
106 19.89160 -9.46302 34.65942 0 0 0
107 20.77849 -10.00846 34.76611 0 0 0
108 21.24320 -10.81896 34.59385 0 0 0
109 21.99814 -10.19604 34.46608 0 0 0
110 22.90770 -10.56334 34.42433 0 0 0
111 23.64617 -10.15665 34.98628 0 0 0
112 24.08903 -10.38976 34.06963 0 0 0
113 24.92019 -9.88834 34.34231 0 0 0
114 25.68538 -10.36204 34.22151 0 0 0
115 26.16634 -11.15206 34.38356 0 0 0
116 26.41078 -11.95454 34.78766 0 0 0
117 27.09244 -12.58181 34.45970 0 0 0
118 27.99322 -13.08323 34.54925 0 0 0
119 28.36331 -13.83125 35.08645 0 0 0
120 28.58525 -14.76788 35.20823 0 0 0
121 28.50591 -15.02020 34.27235 0 0 0
122 -0.63214 -2.39317 34.70237 0 0 0
123 -1.50865 -2.95872 34.35628 0 0 0
124 -2.34590 -3.21261 34.69467 0 0 0
125 -3.04747 -3.87040 34.52139 0 0 0
126 -3.84189 -3.94602 33.98748 0 0 0
127 -4.79125 -4.09006 34.27450 0 0 0
128 -5.59506 -4.67920 34.40228 0 0 0
129 -6.36467 -5.18984 34.32760 0 0 0
130 -7.00669 -5.86859 34.50038 0 0 0
131 -7.70142 -6.33286 35.04675 0 0 0
132 -8.75099 -6.63219 35.07505 0 0 0
133 -9.42933 -7.33732 35.23039 0 0 0
134 -9.97802 -8.19819 35.14383 0 0 0
135 -10.51440 -8.93738 35.52637 0 0 0
136 -11.37016 -8.85438 35.13726 0 0 0
137 -12.23483 -9.46683 35.04229 0 0 0
138 -12.89106 -10.20932 35.08926 0 0 0
139 -13.81985 -10.05435 35.34423 0 0 0
140 -14.63639 -10.61989 35.48157 0 0 0
141 -15.30270 -11.28052 35.48682 0 0 0
142 -16.03593 -11.87848 35.70413 0 0 0
143 -16.80327 -12.46811 35.43802 0 0 0
144 -17.79199 -12.77566 35.40430 0 0 0
145 -18.75629 -12.74622 35.70453 0 0 0
146 -19.68041 -13.24851 35.63503 0 0 0
147 -20.54031 -13.71827 35.49420 0 0 0
148 -21.04062 -14.47806 35.34909 0 0 0
149 -21.69834 -15.23490 35.44411 0 0 0
150 -22.49586 -15.72074 35.77015 0 0 0
151 -23.16206 -16.16425 35.41153 0 0 0
152 -23.97791 -16.82123 35.31692 0 0 0
153 -24.98807 -16.90342 35.20637 0 0 0
154 -25.79019 -17.40779 34.89358 0 0 0
155 -26.28998 -18.22346 34.62432 0 0 0
156 -27.19711 -18.56786 34.72370 0 0 0
157 -28.10385 -18.97761 34.82932 0 0 0
158 -28.85339 -19.48472 35.24341 0 0 0
159 -29.66769 -20.10775 35.15715 0 0 0
160 -30.34627 -20.47183 34.56787 0 0 0
161 -30.90216 -21.20986 34.30429 0 0 0
162 -31.43290 -21.89849 34.75157 0 0 0
163 -31.91346 -22.59460 35.23679 0 0 0
164 -31.75690 -23.28487 35.89055 0 0 0
165 -32.28398 -23.67640 36.61982 0 0 0
166 -32.87841 -24.16072 37.23046 0 0 0
167 -33.36847 -24.87893 37.85771 0 0 0
168 -33.68406 -25.85139 37.98463 0 0 0
169 -34.23680 -26.62715 38.03051 0 0 0
170 -34.26007 -27.24643 38.77545 0 0 0
171 -34.24261 -27.77431 39.62051 0 0 0
172 -33.94846 -28.26631 40.44894 0 0 0
173 -34.60371 -28.13587 41.15473 0 0 0
174 -35.25674 -28.52953 41.76854 0 0 0
175 -35.67264 -28.88600 42.57854 0 0 0
176 -36.09372 -29.68125 42.97424 0 0 0
177 -36.82742 -30.37272 43.31659 0 0 0
178 -37.32917 -31.04802 43.92392 0 0 0
179 -37.66351 -31.64310 44.53196 0 0 0
180 -37.66532 -32.58026 44.89119 0 0 0
181 -38.04536 -32.99470 45.66404 0 0 0
182 -37.97711 -32.89518 46.60945 0 0 0
183 -37.98105 -33.73150 47.23783 0 0 0
184 -37.91621 -34.39434 48.01294 0 0 0
185 -37.74082 -33.90208 48.87763 0 0 0
186 -37.92829 -34.83339 49.15182 0 0 0
187 -38.36674 -35.57719 49.60730 0 0 0
188 -37.99137 -36.44251 49.94527 0 0 0
189 -38.31072 -37.32019 49.71220 0 0 0
190 -39.22120 -37.28848 50.07523 0 0 0
191 -38.74720 -37.76096 50.86873 0 0 0
192 -38.63614 -37.46054 51.82348 0 0 0
193 -39.40792 -38.02969 52.11123 0 0 0
194 -39.51304 -38.81666 52.68469 0 0 0
195 -39.55016 -39.60588 53.33531 0 0 0
196 -39.75568 -39.02716 54.22760 0 0 0
197 -40.44758 -39.10204 54.90112 0 0 0
198 -40.99758 -39.99163 55.04854 0 0 0
199 -41.62939 -40.15952 55.82437 0 0 0
200 -42.40547 -39.83850 56.29597 0 0 0
201 -42.21255 -38.89455 56.57909 0 0 0
202 -30.54017 -21.57374 33.50235 0 0 0
203 -30.36379 -22.12887 32.60990 0 0 0
204 -30.54499 -22.88935 31.98809 0 0 0
205 -30.42548 -22.80225 31.06252 0 0 0
206 -30.67787 -23.73760 30.85489 0 0 0
207 -30.24037 -24.54117 30.64677 0 0 0
208 -29.40476 -24.72892 30.30189 0 0 0
209 -28.92505 -25.08127 29.56800 0 0 0
210 -28.74405 -25.52882 28.68037 0 0 0
211 -28.38691 -25.77565 27.83365 0 0 0
212 -28.10862 -25.97231 26.96572 0 0 0
213 -27.39544 -26.08524 26.29679 0 0 0
214 -26.57727 -26.28176 25.74201 0 0 0
215 -25.78997 -26.50278 25.21900 0 0 0
216 -25.52438 -27.13276 24.54199 0 0 0
217 -24.81305 -27.28937 23.94696 0 0 0
218 -25.08926 -28.23428 23.78975 0 0 0
219 -25.22958 -28.76239 22.99915 0 0 0
220 -24.76597 -29.26666 22.32428 0 0 0
221 -24.47334 -30.10653 21.91819 0 0 0
222 -24.92165 -30.81656 21.40425 0 0 0
223 -24.61857 -31.33055 20.64608 0 0 0
224 -24.73296 -32.16652 20.23861 0 0 0
225 -24.37573 -32.57798 19.45254 0 0 0
226 -23.75222 -33.28604 19.11429 0 0 0
227 -23.72263 -33.93823 18.35588 0 0 0
228 -23.47498 -34.30564 17.50968 0 0 0
229 -22.89613 -35.18942 17.44714 0 0 0
230 -22.83638 -35.28867 16.41686 0 0 0
231 -22.71684 -35.17740 15.41834 0 0 0
232 -23.03687 -35.29546 14.54342 0 0 0
233 -23.10330 -35.51681 13.53897 0 0 0
234 -23.04910 -36.33964 13.08483 0 0 0
235 -22.43136 -36.70058 12.48060 0 0 0
236 -22.05737 -37.06393 11.67737 0 0 0
237 -21.75924 -36.85489 10.66327 0 0 0
238 -21.37992 -36.64141 9.84415 0 0 0
239 -21.33734 -37.18582 8.98255 0 0 0
240 -21.28465 -37.49443 8.02133 0 0 0
241 -21.11816 -37.26909 7.12423 0 0 0
242 -31.79069 -20.60062 34.31754 0 0 0
243 -32.58952 -19.96635 34.49405 0 0 0
244 -33.44623 -19.94513 34.95798 0 0 0
245 -34.43140 -20.00761 34.85105 0 0 0
246 -35.42261 -19.93816 34.58602 0 0 0
247 -36.37095 -19.71576 34.49008 0 0 0
248 -37.27388 -19.68406 34.28711 0 0 0
249 -38.00644 -19.49270 33.66033 0 0 0
250 -38.29454 -18.56609 33.65557 0 0 0
251 -39.07683 -17.85410 33.46197 0 0 0
252 -40.03937 -17.69966 33.44041 0 0 0
253 -40.81904 -17.07457 33.57739 0 0 0
254 -41.40673 -16.66125 32.90052 0 0 0
255 -42.03723 -15.90576 32.84141 0 0 0
256 -42.84701 -15.42778 32.81378 0 0 0
257 -43.75789 -15.10252 32.61072 0 0 0
258 -44.54261 -14.50227 32.55345 0 0 0
259 -45.50001 -14.22333 32.27431 0 0 0
260 -46.29554 -13.62516 32.27061 0 0 0
261 -47.08356 -13.24031 32.72221 0 0 0
262 -47.82579 -12.68293 33.10812 0 0 0
263 -48.55753 -11.96568 33.11587 0 0 0
264 -49.27769 -11.32801 32.96649 0 0 0
265 -50.25987 -11.18070 32.98620 0 0 0
266 -50.97416 -10.58678 32.48835 0 0 0
267 -51.77357 -10.24168 31.93111 0 0 0
268 -52.11185 -9.86657 31.10641 0 0 0
269 -52.70355 -9.08410 31.23763 0 0 0
270 -53.63084 -8.75924 31.23393 0 0 0
271 -54.46954 -8.12322 31.08578 0 0 0
272 -55.25470 -7.45107 31.20306 0 0 0
273 -55.67004 -6.47373 31.24211 0 0 0
274 -56.47615 -6.02001 31.52756 0 0 0
275 -57.40353 -5.52311 31.53899 0 0 0
276 -58.40240 -5.15586 31.55197 0 0 0
277 -59.12792 -5.46516 30.97446 0 0 0
278 -59.77184 -5.04299 30.38950 0 0 0
279 -60.69103 -4.48718 30.31498 0 0 0
280 -61.60315 -4.12250 30.06627 0 0 0
281 -62.34203 -3.51722 29.99793 0 0 0
282 -61.91086 -2.60111 30.29402 0 0 0
283 -61.60791 -1.74577 30.68723 0 0 0
284 -61.12353 -0.96187 31.12306 0 0 0
285 -60.83706 -0.00712 31.23637 0 0 0
286 -60.34176 0.64306 31.77563 0 0 0
287 -59.60973 1.29198 31.83180 0 0 0
288 -59.21498 2.26240 31.83125 0 0 0
289 -59.68642 3.08572 32.08072 0 0 0
290 -59.66725 3.72159 32.81716 0 0 0
291 -59.25585 4.45166 33.30092 0 0 0
292 -58.79773 5.20817 33.77729 0 0 0
293 -58.88835 6.18798 33.89567 0 0 0
294 -59.09448 6.58253 34.78395 0 0 0
295 -59.43377 6.97244 35.70517 0 0 0
296 -59.09948 7.75235 36.34865 0 0 0
297 -58.80447 8.72546 36.41443 0 0 0
298 -58.30343 9.34184 36.90982 0 0 0
299 -58.05019 10.28381 36.91258 0 0 0
300 -57.44085 11.07075 36.98224 0 0 0
301 -57.10264 11.68961 37.64037 0 0 0
302 -57.15506 12.02743 38.64165 0 0 0
303 -56.73557 12.08306 39.61550 0 0 0
304 -56.19314 12.77582 39.98497 0 0 0
305 -55.68768 13.63362 39.64272 0 0 0
306 -55.55280 13.88948 40.71992 0 0 0
307 -55.02227 14.65145 41.13973 0 0 0
308 -55.01187 15.65818 41.49132 0 0 0
309 -55.09915 16.07908 42.36231 0 0 0
310 -54.52142 16.86663 42.69169 0 0 0
311 -53.95201 17.70468 42.94063 0 0 0
312 -54.59672 18.24580 43.35071 0 0 0
313 -54.89025 19.11556 43.71332 0 0 0
314 -54.33890 19.92166 43.83827 0 0 0
315 -53.58346 19.54757 44.24323 0 0 0
316 -52.68434 19.79039 44.57096 0 0 0
317 -51.68317 19.75359 44.69927 0 0 0
318 -51.57960 18.98710 45.41502 0 0 0
319 -51.32545 19.14095 46.40154 0 0 0
320 -50.57678 19.73092 46.51807 0 0 0
321 -50.83267 20.01812 47.40484 0 0 0
322 -63.29926 -3.62718 30.37083 0 0 0
323 -64.26783 -3.68848 30.33603 0 0 0
324 -65.11124 -3.95654 30.65003 0 0 0
325 -66.00573 -4.21191 30.82408 0 0 0
326 -66.69109 -4.42102 31.53305 0 0 0
327 -67.24182 -4.51374 32.31001 0 0 0
328 -67.99397 -5.09151 32.48533 0 0 0
329 -68.75974 -5.77809 32.82975 0 0 0
330 -69.23037 -6.17743 33.56714 0 0 0
331 -69.42954 -6.57744 34.45458 0 0 0
332 -70.22087 -7.18737 34.55620 0 0 0
333 -70.74270 -7.97999 34.68852 0 0 0
334 -71.17581 -8.71194 34.20932 0 0 0
335 -71.26973 -9.27014 33.42082 0 0 0
336 -71.98518 -9.96310 33.56300 0 0 0
337 -72.61493 -10.25816 34.43837 0 0 0
338 -73.47546 -10.71188 34.75202 0 0 0
339 -73.96807 -11.36001 35.39439 0 0 0
340 -74.57856 -11.44573 36.23449 0 0 0
341 -75.20466 -12.04702 36.84049 0 0 0
342 -76.01259 -12.57338 37.11342 0 0 0
343 -76.89284 -12.63516 37.51793 0 0 0
344 -77.43963 -13.37053 37.80657 0 0 0
345 -77.70055 -13.72301 38.73358 0 0 0
346 -77.85759 -14.35271 39.38469 0 0 0
347 -78.52848 -15.05634 39.17298 0 0 0
348 -79.24757 -15.74830 39.13473 0 0 0
349 -80.04519 -16.34391 38.91483 0 0 0
350 -80.78361 -16.59095 39.52575 0 0 0
351 -81.54553 -16.46224 40.10467 0 0 0
352 -81.76485 -16.68263 41.01471 0 0 0
353 -82.56974 -16.81551 41.50349 0 0 0
354 -83.35370 -16.88067 42.07247 0 0 0
355 -83.40610 -17.00231 43.04365 0 0 0
356 -84.15662 -17.12063 43.61526 0 0 0
357 -84.42017 -18.03692 43.84772 0 0 0
358 -84.46379 -19.03795 43.80164 0 0 0
359 -85.01130 -19.34417 44.51396 0 0 0
360 -85.73337 -19.52130 45.09659 0 0 0
361 -86.01475 -19.00502 45.87225 0 0 0
362 -62.88590 -3.15129 29.29057 0 0 0
363 -63.33055 -2.57126 28.64443 0 0 0
364 -63.54506 -2.01666 27.86479 0 0 0
365 -63.91504 -1.82206 27.04437 0 0 0
366 -64.05693 -1.04062 26.37597 0 0 0
367 -63.83845 -0.71367 25.47292 0 0 0
368 -64.41720 -0.38767 24.67534 0 0 0
369 -64.75840 0.43428 24.28826 0 0 0
370 -64.95945 0.71455 23.33251 0 0 0
371 -65.31715 1.12990 22.57313 0 0 0
372 -65.99520 0.51296 22.18419 0 0 0
373 -66.19548 0.28202 21.25651 0 0 0
374 -66.59631 0.26774 20.32598 0 0 0
375 -67.20941 1.01477 20.32032 0 0 0
376 -67.79533 1.56285 19.67236 0 0 0
377 -68.67529 1.70093 19.17179 0 0 0
378 -69.11102 1.85852 18.27473 0 0 0
379 -68.96819 2.35140 17.46990 0 0 0
380 -69.12578 3.07708 16.81580 0 0 0
381 -69.54455 3.77315 16.19947 0 0 0
382 -70.19347 4.09830 15.46612 0 0 0
383 -70.44687 4.15659 14.40188 0 0 0
384 -70.87860 4.47015 13.60676 0 0 0
385 -71.47231 4.40647 12.83867 0 0 0
386 -72.03820 4.42847 11.94919 0 0 0
387 -72.31159 4.82990 11.09007 0 0 0
388 -72.15544 5.13625 10.11057 0 0 0