ITEM: TIMESTEP
0
ITEM: NUMBER OF ATOMS
201
ITEM: BOX BOUNDS pp pp pp
-1.0000000000000000e+03 1.0000000000000000e+03
-1.0000000000000000e+03 1.0000000000000000e+03
-1.0000000000000000e+03 1.0000000000000000e+03
ITEM: ATOMS id x y z ix iy iz
1 0.00000 0.00000 0.00000 0 0 0
2 0.00000 0.00000 1.00000 0 0 0
3 0.00000 -0.50000 1.86603 0 0 0
4 0.00000 0.00000 2.73205 0 0 0
5 0.00000 -0.50000 3.59808 0 0 0
6 0.00000 0.00000 4.46410 0 0 0
7 0.00000 -0.50000 5.33013 0 0 0
8 0.00000 0.00000 6.19615 0 0 0
9 0.00000 -0.50000 7.06218 0 0 0
10 0.00000 0.00000 7.92820 0 0 0
11 0.00000 -0.50000 8.79423 0 0 0
12 0.00000 0.00000 9.66025 0 0 0
13 0.00000 -0.50000 10.52628 0 0 0
14 0.00000 0.00000 11.39230 0 0 0
15 0.00000 -0.50000 12.25833 0 0 0
16 0.00000 0.00000 13.12436 0 0 0
17 0.00000 -0.50000 13.99038 0 0 0
18 0.00000 0.00000 14.85641 0 0 0
19 0.00000 -0.50000 15.72243 0 0 0
20 0.00000 0.00000 16.58846 0 0 0
21 0.00000 -0.50000 17.45448 0 0 0
22 -0.69907 -0.11927 18.05975 0 0 0
23 -1.39814 -0.09217 18.77429 0 0 0
24 -2.09721 0.54018 19.10809 0 0 0
25 -2.79628 0.56728 19.82263 0 0 0
26 -3.49535 1.19963 20.15644 0 0 0
27 -4.19441 1.22673 20.87098 0 0 0
28 -4.89348 1.85908 21.20479 0 0 0
29 -5.59255 1.88618 21.91933 0 0 0
30 -6.29162 2.51854 22.25314 0 0 0
31 -6.99069 2.54563 22.96768 0 0 0
32 -7.68976 3.17799 23.30148 0 0 0
33 -8.38883 3.20508 24.01602 0 0 0
34 -9.08790 3.83744 24.34983 0 0 0
35 -9.78697 3.86453 25.06437 0 0 0
36 -10.48604 4.49689 25.39818 0 0 0
37 -11.18511 4.52398 26.11272 0 0 0
38 -11.88417 5.15634 26.44653 0 0 0
39 -12.58324 5.18343 27.16107 0 0 0
40 -13.28231 5.81579 27.49487 0 0 0
41 -13.98138 5.84288 28.20941 0 0 0
42 0.89717 -0.41642 17.88818 0 0 0
43 1.79434 -0.56089 18.30557 0 0 0
44 2.69152 -0.27166 18.63938 0 0 0
45 3.58869 -0.41612 19.05676 0 0 0
46 4.48586 -0.12689 19.39057 0 0 0
47 5.38303 -0.27136 19.80796 0 0 0
48 6.28020 0.01787 20.14176 0 0 0
49 7.17737 -0.12660 20.55915 0 0 0
50 8.07455 0.16264 20.89296 0 0 0
51 8.97172 0.01817 21.31034 0 0 0
52 9.86889 0.30740 21.64415 0 0 0
53 10.76606 0.16293 22.06154 0 0 0
54 11.66323 0.45217 22.39535 0 0 0
55 12.56041 0.30770 22.81273 0 0 0
56 13.45758 0.59693 23.14654 0 0 0
57 14.35475 0.45246 23.56393 0 0 0
58 15.25192 0.74169 23.89773 0 0 0
59 16.14909 0.59723 24.31512 0 0 0
60 17.04626 0.88646 24.64893 0 0 0
61 17.94344 0.74199 25.06631 0 0 0
62 -0.19810 -1.46502 17.28277 0 0 0
63 -0.39621 -2.21490 16.65156 0 0 0
64 -0.59431 -3.13649 16.98536 0 0 0
65 -0.79241 -3.88637 16.35415 0 0 0
66 -0.99051 -4.80796 16.68795 0 0 0
67 -1.18862 -5.55784 16.05674 0 0 0
68 -1.38672 -6.47943 16.39054 0 0 0
69 -1.58482 -7.22932 15.75933 0 0 0
70 -1.78292 -8.15091 16.09313 0 0 0
71 -1.98103 -8.90079 15.46192 0 0 0
72 -2.17913 -9.82238 15.79572 0 0 0
73 -2.37723 -10.57226 15.16451 0 0 0
74 -2.57534 -11.49385 15.49831 0 0 0
75 -2.77344 -12.24373 14.86710 0 0 0
76 -2.97154 -13.16532 15.20090 0 0 0
77 -3.16964 -13.91520 14.56968 0 0 0
78 -3.36775 -14.83679 14.90349 0 0 0
79 -3.56585 -15.58667 14.27227 0 0 0
80 -3.76395 -16.50826 14.60608 0 0 0
81 -3.96205 -17.25814 13.97486 0 0 0
82 -3.25928 -17.96395 14.06397 0 0 0
83 -2.55650 -18.61974 13.78823 0 0 0
84 -1.85372 -19.18644 14.21830 0 0 0
85 -1.15095 -19.84224 13.94256 0 0 0
86 -0.44817 -20.40894 14.37262 0 0 0
87 0.25461 -21.06474 14.09688 0 0 0
88 0.95739 -21.63143 14.52695 0 0 0
89 1.66016 -22.28723 14.25121 0 0 0
90 2.36294 -22.85393 14.68128 0 0 0
91 3.06572 -23.50973 14.40554 0 0 0
92 3.76849 -24.07642 14.83561 0 0 0
93 4.47127 -24.73222 14.55987 0 0 0
94 5.17405 -25.29892 14.98994 0 0 0
95 5.87683 -25.95472 14.71420 0 0 0
96 6.57960 -26.52141 15.14427 0 0 0
97 7.28238 -27.17721 14.86853 0 0 0
98 7.98516 -27.74391 15.29860 0 0 0
99 8.68794 -28.39971 15.02286 0 0 0
100 9.39071 -28.96640 15.45293 0 0 0
101 10.09349 -29.62220 15.17719 0 0 0
102 -3.96894 -16.91182 13.03677 0 0 0
103 -3.97583 -16.14285 12.39752 0 0 0
104 -3.98271 -16.31198 11.41195 0 0 0
105 -3.98960 -15.54301 10.77270 0 0 0
106 -3.99649 -15.71214 9.78713 0 0 0
107 -4.00337 -14.94317 9.14787 0 0 0
108 -4.01026 -15.11230 8.16230 0 0 0
109 -4.01715 -14.34333 7.52305 0 0 0
110 -4.02403 -14.51246 6.53748 0 0 0
111 -4.03092 -13.74349 5.89823 0 0 0
112 -4.03781 -13.91262 4.91266 0 0 0
113 -4.04469 -13.14365 4.27341 0 0 0
114 -4.05158 -13.31278 3.28784 0 0 0
115 -4.05847 -12.54381 2.64858 0 0 0
116 -4.06535 -12.71294 1.66301 0 0 0
117 -4.07224 -11.94397 1.02376 0 0 0
118 -4.07913 -12.11310 0.03819 0 0 0
119 -4.08601 -11.34413 -0.60106 0 0 0
120 -4.09290 -11.51326 -1.58663 0 0 0
121 -4.09979 -10.74429 -2.22589 0 0 0
122 -4.85633 -17.64959 14.19174 0 0 0
123 -5.75060 -18.09704 14.18383 0 0 0
124 -6.64488 -18.32761 14.56738 0 0 0
125 -7.53915 -18.77506 14.55947 0 0 0
126 -8.43343 -19.00563 14.94302 0 0 0
127 -9.32770 -19.45308 14.93512 0 0 0
128 -10.22198 -19.68365 15.31866 0 0 0
129 -11.11625 -20.13110 15.31076 0 0 0
130 -12.01053 -20.36167 15.69430 0 0 0
131 -12.90480 -20.80912 15.68640 0 0 0
132 -13.79908 -21.03970 16.06995 0 0 0
133 -14.69335 -21.48714 16.06204 0 0 0
134 -15.58763 -21.71772 16.44559 0 0 0
135 -16.48190 -22.16516 16.43768 0 0 0
136 -17.37618 -22.39574 16.82123 0 0 0
137 -18.27045 -22.84318 16.81332 0 0 0
138 -19.16473 -23.07376 17.19687 0 0 0
139 -20.05900 -23.52121 17.18896 0 0 0
140 -20.95328 -23.75178 17.57251 0 0 0
141 -21.84755 -24.19923 17.56460 0 0 0
142 -22.55839 -23.52124 17.37742 0 0 0
143 -23.26924 -22.84050 17.55431 0 0 0
144 -23.98008 -22.34694 17.05321 0 0 0
145 -24.69093 -21.66619 17.23010 0 0 0
146 -25.40177 -21.17263 16.72900 0 0 0
147 -26.11262 -20.49189 16.90589 0 0 0
148 -26.82346 -19.99833 16.40480 0 0 0
149 -27.53430 -19.31759 16.58169 0 0 0
150 -28.24515 -18.82402 16.08059 0 0 0
151 -28.95599 -18.14328 16.25748 0 0 0
152 -29.66684 -17.64972 15.75638 0 0 0
153 -30.37768 -16.96898 15.93327 0 0 0
154 -31.08853 -16.47541 15.43217 0 0 0
155 -31.79937 -15.79467 15.60906 0 0 0
156 -32.51021 -15.30111 15.10797 0 0 0
157 -33.22106 -14.62037 15.28485 0 0 0
158 -33.93190 -14.12681 14.78376 0 0 0
159 -34.64275 -13.44606 14.96065 0 0 0
160 -35.35359 -12.95250 14.45955 0 0 0
161 -36.06443 -12.27176 14.63644 0 0 0
162 -22.01708 -24.62216 18.45476 0 0 0
163 -22.18660 -25.43352 19.01419 0 0 0
164 -22.35613 -25.35471 19.99656 0 0 0
165 -22.52566 -26.16607 20.55600 0 0 0
166 -22.69518 -26.08726 21.53837 0 0 0
167 -22.86471 -26.89861 22.09780 0 0 0
168 -23.03423 -26.81981 23.08017 0 0 0
169 -23.20376 -27.63116 23.63960 0 0 0
170 -23.37329 -27.55236 24.62197 0 0 0
171 -23.54281 -28.36371 25.18141 0 0 0
172 -23.71234 -28.28490 26.16378 0 0 0
173 -23.88187 -29.09626 26.72321 0 0 0
174 -24.05139 -29.01745 27.70558 0 0 0
175 -24.22092 -29.82881 28.26501 0 0 0
176 -24.39044 -29.75000 29.24738 0 0 0
177 -24.55997 -30.56135 29.80681 0 0 0
178 -24.72950 -30.48255 30.78918 0 0 0
179 -24.89902 -31.29390 31.34862 0 0 0
180 -25.06855 -31.21510 32.33099 0 0 0
181 -25.23808 -32.02645 32.89042 0 0 0
182 -21.86272 -24.90236 16.85370 0 0 0
183 -21.87790 -25.15584 15.88648 0 0 0
184 -21.89307 -26.12022 15.62239 0 0 0
185 -21.90825 -26.37370 14.65517 0 0 0
186 -21.92342 -27.33808 14.39108 0 0 0
187 -21.93860 -27.59156 13.42386 0 0 0
188 -21.95377 -28.55594 13.15977 0 0 0
189 -21.96895 -28.80942 12.19255 0 0 0
190 -21.98412 -29.77380 11.92846 0 0 0
191 -21.99930 -30.02728 10.96124 0 0 0
192 -22.01447 -30.99166 10.69715 0 0 0
193 -22.02964 -31.24514 9.72993 0 0 0
194 -22.04482 -32.20952 9.46584 0 0 0
195 -22.05999 -32.46300 8.49862 0 0 0
196 -22.07517 -33.42738 8.23453 0 0 0
197 -22.09034 -33.68086 7.26731 0 0 0
198 -22.10552 -34.64524 7.00322 0 0 0
199 -22.12069 -34.89872 6.03600 0 0 0
200 -22.13587 -35.86310 5.77191 0 0 0
201 -22.15104 -36.11658 4.80469 0 0 0
ITEM: TIMESTEP
1000
ITEM: NUMBER OF ATOMS
201
ITEM: BOX BOUNDS pp pp pp
-1.0000000000000000e+03 1.0000000000000000e+03
-1.0000000000000000e+03 1.0000000000000000e+03
-1.0000000000000000e+03 1.0000000000000000e+03
ITEM: ATOMS id x y z ix iy iz
1 -0.91490 0.85389 2.27518 0 0 0
2 -0.27588 0.21100 2.52239 0 0 0
3 -0.45747 0.02257 3.50270 0 0 0
4 0.50099 0.27010 3.74248 0 0 0
5 -0.01613 0.73051 4.50905 0 0 0
6 -0.14657 0.71849 5.49008 0 0 0
7 0.29261 0.83249 6.44150 0 0 0
8 0.61130 0.84650 7.33094 0 0 0
9 0.83409 1.47270 8.04865 0 0 0
10 1.52477 1.13896 8.62463 0 0 0
11 0.73933 0.85842 9.17782 0 0 0
12 0.80325 0.60943 10.10108 0 0 0
13 0.60851 0.31591 11.09675 0 0 0
14 1.11130 -0.31217 11.64478 0 0 0
15 0.70921 -0.79768 12.48084 0 0 0
16 0.65695 -1.16132 13.40481 0 0 0
17 0.23067 -0.92959 14.28470 0 0 0
18 0.17033 -1.26668 15.25282 0 0 0
19 -0.27477 -1.34254 16.14996 0 0 0
20 -1.08223 -1.63857 16.57545 0 0 0
21 -0.67362 -2.17887 17.23006 0 0 0
22 -1.41054 -1.92461 17.81752 0 0 0
23 -2.12484 -1.67979 18.48170 0 0 0
24 -2.84427 -1.93914 19.15313 0 0 0
25 -2.71369 -1.15755 19.68502 0 0 0
26 -2.52284 -0.35514 20.21171 0 0 0
27 -2.96931 -0.36132 21.11454 0 0 0
28 -3.62535 0.25470 21.55896 0 0 0
29 -3.66551 0.93122 22.24935 0 0 0
30 -3.91793 1.79381 22.83345 0 0 0
31 -4.69861 2.34272 22.97611 0 0 0
32 -5.44613 2.75145 23.56621 0 0 0
33 -6.05362 3.63176 23.68763 0 0 0
34 -6.88177 4.31293 23.73837 0 0 0
35 -7.47966 5.09699 23.80754 0 0 0
36 -8.27853 5.41459 24.21209 0 0 0
37 -8.88352 5.68940 24.92734 0 0 0
38 -9.75345 6.14218 25.21967 0 0 0
39 -10.19889 6.96775 25.42647 0 0 0
40 -10.54611 6.38290 26.09800 0 0 0
41 -10.64823 7.34371 26.27757 0 0 0
42 0.25233 -1.99930 17.39847 0 0 0
43 0.59088 -1.44100 18.05341 0 0 0
44 0.97121 -1.00889 18.95344 0 0 0
45 1.77112 -0.92854 19.58639 0 0 0
46 2.37055 -0.59549 20.36787 0 0 0
47 3.18943 -0.01627 20.10078 0 0 0
48 4.18995 0.32150 19.93921 0 0 0
49 5.08637 0.02497 20.02252 0 0 0
50 5.66563 0.56656 20.61793 0 0 0
51 6.54228 1.14204 20.69148 0 0 0
52 6.27813 0.62266 21.50263 0 0 0
53 6.62853 0.25338 22.35231 0 0 0
54 6.97570 1.14338 22.53300 0 0 0
55 7.48814 1.10720 23.36423 0 0 0
56 8.31701 0.57643 23.50846 0 0 0
57 8.78806 1.17117 24.08438 0 0 0
58 9.28017 1.94538 23.77170 0 0 0
59 9.89661 1.30905 24.05868 0 0 0
60 10.49161 1.26161 23.26614 0 0 0
61 10.13798 1.79077 22.55535 0 0 0
62 -0.87050 -3.05555 16.90339 0 0 0
63 -1.30946 -3.61471 16.28725 0 0 0
64 -1.45461 -4.28414 15.56830 0 0 0
65 -1.71613 -5.09758 15.18723 0 0 0
66 -2.53918 -5.31680 14.84610 0 0 0
67 -2.80588 -6.23387 14.48382 0 0 0
68 -3.43459 -6.79303 13.97377 0 0 0
69 -2.76529 -7.49786 13.84521 0 0 0
70 -2.58126 -8.37092 14.13495 0 0 0
71 -2.99096 -9.18351 13.61191 0 0 0
72 -3.64483 -9.49744 14.30526 0 0 0
73 -4.14506 -10.30266 14.41124 0 0 0
74 -4.76921 -10.72658 13.72233 0 0 0
75 -4.82234 -11.43056 13.03166 0 0 0
76 -4.99584 -12.42420 13.02125 0 0 0
77 -5.15447 -13.42450 12.86416 0 0 0
78 -5.23720 -14.30718 13.20608 0 0 0
79 -4.46847 -15.00310 13.15112 0 0 0
80 -4.24378 -15.95491 13.41195 0 0 0
81 -4.74491 -16.74591 13.72466 0 0 0
82 -3.86060 -16.84354 14.22539 0 0 0
83 -3.74949 -17.79953 14.49571 0 0 0
84 -3.10610 -18.30525 14.93937 0 0 0
85 -2.37659 -18.93929 15.00538 0 0 0
86 -2.15498 -19.91535 15.07102 0 0 0
87 -1.39790 -20.56866 15.39991 0 0 0
88 -0.43738 -20.40484 15.13324 0 0 0
89 0.49019 -20.68812 14.95921 0 0 0
90 1.17968 -21.36753 15.19881 0 0 0
91 1.46636 -22.26798 15.33566 0 0 0
92 2.41720 -22.31133 15.47404 0 0 0
93 3.09488 -22.49608 14.78810 0 0 0
94 4.05975 -22.68442 14.75035 0 0 0
95 4.93687 -23.06585 14.79841 0 0 0
96 5.41733 -23.89065 15.08549 0 0 0
97 6.03474 -24.63891 15.33127 0 0 0
98 6.85060 -24.99569 14.91118 0 0 0
99 7.67985 -24.63721 14.56531 0 0 0
100 8.46467 -24.31694 14.14183 0 0 0
101 9.34635 -24.19826 14.54313 0 0 0
102 -4.90934 -17.22742 12.77790 0 0 0
103 -4.62264 -17.04900 11.89882 0 0 0
104 -4.68548 -16.69652 10.93090 0 0 0
105 -4.08580 -15.96965 10.45122 0 0 0
106 -3.82705 -15.28795 9.80363 0 0 0
107 -3.37673 -14.85944 9.07815 0 0 0
108 -3.31614 -15.12022 8.10680 0 0 0
109 -2.71330 -15.00617 7.34876 0 0 0
110 -2.57888 -15.08664 6.38029 0 0 0
111 -2.47110 -15.87088 5.71748 0 0 0
112 -2.18557 -15.01781 5.35171 0 0 0
113 -2.96910 -14.80070 4.79466 0 0 0
114 -2.95862 -14.46846 3.92459 0 0 0
115 -3.89363 -14.00552 3.92110 0 0 0
116 -3.83274 -14.10472 2.94784 0 0 0
117 -3.76947 -13.79745 2.03783 0 0 0
118 -4.14106 -12.90796 2.08834 0 0 0
119 -4.20611 -12.41134 1.09705 0 0 0
120 -4.27081 -11.57316 0.61813 0 0 0
121 -4.49252 -10.60765 0.82866 0 0 0
122 -5.21869 -17.58407 13.96342 0 0 0
123 -6.10125 -18.05206 13.88955 0 0 0
124 -7.00321 -18.49972 13.70857 0 0 0
125 -7.14686 -19.49865 13.89607 0 0 0
126 -7.39363 -19.94356 14.70027 0 0 0
127 -8.20427 -20.25947 15.20361 0 0 0
128 -8.70366 -20.60513 15.95494 0 0 0
129 -9.61211 -21.27414 16.17050 0 0 0
130 -10.42414 -21.83966 15.77895 0 0 0
131 -11.43009 -22.14229 15.86717 0 0 0
132 -12.27778 -22.54462 16.03415 0 0 0
133 -13.09352 -22.79364 16.48747 0 0 0
134 -14.07034 -22.48711 16.50849 0 0 0
135 -14.61841 -22.68799 17.32250 0 0 0
136 -15.60604 -22.96740 17.39268 0 0 0
137 -16.45502 -22.62130 17.19994 0 0 0
138 -17.47207 -22.70849 17.35486 0 0 0
139 -18.49002 -22.77202 17.31176 0 0 0
140 -19.29747 -23.28965 17.45849 0 0 0
141 -20.15612 -23.56682 17.17304 0 0 0
142 -20.84373 -22.89853 17.22981 0 0 0
143 -21.70577 -22.57773 17.69374 0 0 0
144 -22.41322 -22.10521 17.36241 0 0 0
145 -23.15196 -21.49001 16.87250 0 0 0
146 -23.77151 -20.75466 17.04296 0 0 0
147 -24.69570 -20.47047 16.89025 0 0 0
148 -25.36822 -20.04770 16.33328 0 0 0
149 -26.44532 -20.36310 16.17368 0 0 0
150 -27.02117 -19.56557 15.93968 0 0 0
151 -27.78457 -19.01016 15.49216 0 0 0
152 -27.93424 -17.99063 15.40828 0 0 0
153 -28.54751 -17.98782 14.58163 0 0 0
154 -29.36346 -17.61749 14.20254 0 0 0
155 -29.67697 -16.71080 14.41838 0 0 0
156 -30.10432 -15.94480 14.94226 0 0 0
157 -30.39158 -15.23284 15.47733 0 0 0
158 -30.02395 -14.34226 15.52395 0 0 0
159 -30.49954 -14.27575 16.37130 0 0 0
160 -31.01615 -14.62487 17.14146 0 0 0
161 -31.55120 -13.94926 17.60189 0 0 0
162 -20.43459 -24.12030 17.93750 0 0 0
163 -20.57184 -24.32997 18.86012 0 0 0
164 -21.13239 -24.77691 19.58628 0 0 0
165 -21.53467 -24.37555 20.40270 0 0 0
166 -22.16498 -25.05948 20.20322 0 0 0
167 -22.28036 -25.54625 21.04286 0 0 0
168 -22.35423 -25.59985 22.08164 0 0 0
169 -22.36820 -25.92006 23.00466 0 0 0
170 -23.09204 -26.36686 22.53774 0 0 0
171 -23.35480 -26.90960 23.31719 0 0 0
172 -23.27934 -27.67989 23.97788 0 0 0
173 -23.27654 -27.43881 24.93934 0 0 0
174 -23.34481 -27.79153 25.86615 0 0 0
175 -23.03117 -28.49324 26.53602 0 0 0
176 -22.51098 -28.50665 27.40005 0 0 0
177 -22.30458 -27.53656 27.19843 0 0 0
178 -22.15036 -26.95010 27.98833 0 0 0
179 -22.63833 -26.30402 28.51461 0 0 0
180 -23.45487 -26.76245 28.86398 0 0 0
181 -24.19763 -26.61339 29.55431 0 0 0
182 -20.65054 -24.34429 16.87608 0 0 0
183 -20.21588 -24.81395 16.01194 0 0 0
184 -20.23552 -25.31515 15.15747 0 0 0
185 -20.51707 -24.75403 14.30569 0 0 0
186 -20.06155 -25.43191 13.68036 0 0 0
187 -20.26820 -26.49630 13.37594 0 0 0
188 -20.26708 -27.24383 12.72129 0 0 0
189 -20.61213 -27.86966 12.10275 0 0 0
190 -21.03574 -28.65892 11.63544 0 0 0
191 -21.37506 -29.49235 11.15761 0 0 0
192 -21.33766 -30.42282 11.38941 0 0 0
193 -21.51390 -31.40110 11.08179 0 0 0
194 -21.43577 -32.05449 10.22223 0 0 0
195 -21.81907 -32.38172 9.43326 0 0 0
196 -21.64253 -32.70055 8.47774 0 0 0
197 -22.01730 -33.67782 8.19144 0 0 0
198 -21.90280 -34.57275 8.49917 0 0 0
199 -22.34123 -35.35716 8.13446 0 0 0
200 -22.80145 -36.01616 7.48116 0 0 0
201 -21.96342 -35.91275 6.99842 0 0 0
ITEM: TIMESTEP
2000
ITEM: NUMBER OF ATOMS
201
ITEM: BOX BOUNDS pp pp pp
-1.0000000000000000e+03 1.0000000000000000e+03
-1.0000000000000000e+03 1.0000000000000000e+03
-1.0000000000000000e+03 1.0000000000000000e+03
ITEM: ATOMS id x y z ix iy iz
1 -0.75671 1.00429 3.19205 0 0 0
2 -0.79116 0.28036 3.96176 0 0 0
3 -0.90344 0.54426 4.95554 0 0 0
4 -0.64463 -0.12933 5.70087 0 0 0
5 -0.37794 0.51027 6.51026 0 0 0
6 0.46076 0.76655 6.90438 0 0 0
7 0.34126 0.81305 7.83100 0 0 0
8 0.76373 1.55475 8.24628 0 0 0
9 0.46512 1.20029 9.09959 0 0 0
10 1.33812 0.94509 9.00548 0 0 0
11 0.86213 0.13923 9.39179 0 0 0
12 -0.01151 -0.00695 9.85161 0 0 0
13 0.60927 -0.54557 10.36650 0 0 0
14 0.90616 -1.39291 10.84664 0 0 0
15 1.14043 -1.63388 11.79500 0 0 0
16 1.15529 -1.73033 12.75635 0 0 0
17 0.82135 -1.88571 13.65960 0 0 0
18 0.52125 -2.42788 14.39598 0 0 0
19 0.03184 -2.47964 15.26859 0 0 0
20 0.42303 -2.42025 16.15700 0 0 0
21 0.17272 -2.71181 17.05164 0 0 0
22 -0.47326 -2.17840 17.49318 0 0 0
23 -0.78322 -1.37585 17.93964 0 0 0
24 -1.78185 -1.06471 17.96594 0 0 0
25 -2.79013 -1.26857 18.05552 0 0 0
26 -2.71967 -0.53429 18.73558 0 0 0
27 -2.59562 0.36413 19.25820 0 0 0
28 -2.67508 0.23765 20.23273 0 0 0
29 -2.78438 1.21318 20.41245 0 0 0
30 -3.65918 1.70532 20.40015 0 0 0
31 -3.81732 2.40306 21.07102 0 0 0
32 -3.86850 3.02939 21.82122 0 0 0
33 -4.46712 3.77146 21.75485 0 0 0
34 -4.71259 4.59821 22.15091 0 0 0
35 -4.59778 5.23874 22.95190 0 0 0
36 -3.97682 5.95975 23.11790 0 0 0
37 -4.05728 6.06700 24.01991 0 0 0
38 -4.86071 6.10552 24.58482 0 0 0
39 -5.21067 5.32853 23.92973 0 0 0
40 -5.74320 4.98041 23.20427 0 0 0
41 -5.74530 5.89995 22.96301 0 0 0
42 0.06353 -3.12988 17.90365 0 0 0
43 0.96502 -2.95868 18.34514 0 0 0
44 1.30970 -3.86799 18.43164 0 0 0
45 1.88521 -3.29075 18.97720 0 0 0
46 2.19932 -2.54475 18.40939 0 0 0
47 1.93745 -2.30496 19.46356 0 0 0
48 1.98867 -2.13822 20.41443 0 0 0
49 2.90275 -2.50076 20.19505 0 0 0
50 3.43895 -1.68539 20.37903 0 0 0
51 4.12792 -1.28941 20.88622 0 0 0
52 4.43192 -1.62176 21.78832 0 0 0
53 5.31181 -1.72820 22.18650 0 0 0
54 5.13269 -1.41350 23.07842 0 0 0
55 5.57904 -0.76081 22.51072 0 0 0
56 6.13157 -0.51886 23.25899 0 0 0
57 6.81221 0.01178 23.78098 0 0 0
58 7.34377 0.37642 24.49505 0 0 0
59 8.08085 0.99816 24.84756 0 0 0
60 9.06549 1.32991 24.81372 0 0 0
61 9.91048 0.91955 24.40571 0 0 0
62 0.35248 -3.47824 16.37545 0 0 0
63 -0.25534 -4.13035 16.05200 0 0 0
64 -0.07017 -5.12174 15.85146 0 0 0
65 -0.67569 -5.85487 16.21305 0 0 0
66 -1.32338 -6.60160 16.38247 0 0 0
67 -1.29277 -7.56976 16.35617 0 0 0
68 -1.71526 -8.49293 16.31549 0 0 0
69 -1.91266 -9.33184 15.73709 0 0 0
70 -2.33340 -9.39280 14.90682 0 0 0
71 -2.65959 -10.13128 14.30855 0 0 0
72 -3.50283 -10.74555 14.21514 0 0 0
73 -4.14886 -11.64110 14.08368 0 0 0
74 -4.16021 -12.61667 14.13564 0 0 0
75 -4.49262 -13.52200 14.15343 0 0 0
76 -4.39702 -14.45163 14.49277 0 0 0
77 -4.20691 -15.32226 14.78792 0 0 0
78 -3.55464 -16.03788 15.02915 0 0 0
79 -2.92002 -16.43876 14.46681 0 0 0
80 -3.65700 -16.98775 14.22364 0 0 0
81 -4.40144 -17.41022 14.72529 0 0 0
82 -4.46556 -18.31993 15.03997 0 0 0
83 -3.60071 -18.62760 15.50361 0 0 0
84 -2.77148 -19.01442 15.96327 0 0 0
85 -1.97528 -19.60591 16.03072 0 0 0
86 -1.42813 -19.74731 15.30478 0 0 0
87 -0.49898 -19.67654 15.39745 0 0 0
88 0.22065 -19.01524 15.54802 0 0 0
89 1.08412 -19.42146 15.37464 0 0 0
90 1.57971 -19.11624 16.09976 0 0 0
91 2.37572 -19.10863 16.72524 0 0 0
92 2.66802 -20.03557 16.72586 0 0 0
93 3.20455 -20.91469 16.67231 0 0 0
94 3.45893 -21.46877 17.48402 0 0 0
95 3.63825 -22.33704 16.99248 0 0 0
96 4.01195 -23.02382 17.55149 0 0 0
97 4.89143 -23.48549 17.43428 0 0 0
98 5.47693 -24.27022 17.48891 0 0 0
99 5.43790 -24.75913 16.64732 0 0 0
100 6.05934 -25.05847 15.92369 0 0 0
101 6.08434 -24.56667 15.12510 0 0 0
102 -4.76528 -17.17386 13.87952 0 0 0
103 -5.70341 -17.40515 13.67779 0 0 0
104 -5.96771 -17.32887 12.68664 0 0 0
105 -6.77475 -16.96638 12.28764 0 0 0
106 -6.56059 -17.10356 11.36286 0 0 0
107 -6.69588 -17.64003 10.51949 0 0 0
108 -6.80711 -17.68259 9.44133 0 0 0
109 -6.88653 -17.39954 8.46343 0 0 0
110 -6.87286 -17.20667 7.49634 0 0 0
111 -6.25066 -17.78909 6.99173 0 0 0
112 -5.74691 -16.94901 7.19846 0 0 0
113 -5.18564 -16.45803 6.62769 0 0 0
114 -5.05042 -15.52849 6.26035 0 0 0
115 -5.07462 -15.67538 5.28041 0 0 0
116 -5.01384 -15.13556 4.43424 0 0 0
117 -4.22847 -14.84548 3.96279 0 0 0
118 -5.00480 -14.55098 3.46629 0 0 0
119 -4.80275 -14.24797 2.55816 0 0 0
120 -3.89583 -14.17142 2.34756 0 0 0
121 -3.16542 -13.86589 2.84604 0 0 0
122 -5.40475 -17.44663 14.81292 0 0 0
123 -6.30232 -17.76712 14.75101 0 0 0
124 -6.87429 -18.25880 14.20724 0 0 0
125 -7.39962 -19.00494 14.36525 0 0 0
126 -8.03222 -19.54424 14.97119 0 0 0
127 -8.55806 -18.72329 14.89099 0 0 0
128 -9.17767 -19.22606 14.31228 0 0 0
129 -10.10083 -19.06846 14.29123 0 0 0
130 -11.07152 -19.07543 14.37795 0 0 0
131 -11.85957 -19.60167 14.54892 0 0 0
132 -12.24928 -19.53930 15.41760 0 0 0
133 -13.10551 -19.94644 15.21372 0 0 0
134 -14.02990 -20.35000 15.48660 0 0 0
135 -14.80718 -20.86020 15.04684 0 0 0
136 -15.29613 -21.38046 14.42980 0 0 0
137 -16.22902 -21.45171 13.97162 0 0 0
138 -17.12995 -21.51770 14.43587 0 0 0
139 -17.96896 -21.93157 14.64043 0 0 0
140 -18.93282 -21.81137 14.65262 0 0 0
141 -19.84471 -22.18727 14.75291 0 0 0
142 -20.21654 -21.31362 15.04778 0 0 0
143 -19.87504 -20.55869 14.56710 0 0 0
144 -20.73953 -20.16006 14.77405 0 0 0
145 -21.49203 -19.61504 14.93428 0 0 0
146 -22.36977 -19.40132 15.28668 0 0 0
147 -23.24750 -19.61462 14.70367 0 0 0
148 -23.97290 -19.80635 14.13062 0 0 0
149 -24.66420 -20.24757 13.67571 0 0 0
150 -24.97900 -19.34529 13.99917 0 0 0
151 -25.83747 -18.93285 14.35978 0 0 0
152 -26.72384 -18.61359 14.37069 0 0 0
153 -27.31834 -18.15145 13.69352 0 0 0
154 -27.84311 -17.30264 13.76117 0 0 0
155 -28.71741 -17.06413 13.45089 0 0 0
156 -29.29681 -16.30404 13.15360 0 0 0
157 -28.60929 -15.55317 13.24901 0 0 0
158 -29.56448 -15.13247 13.22068 0 0 0
159 -30.44537 -15.48569 13.13411 0 0 0
160 -31.16935 -15.78291 13.69717 0 0 0
161 -31.38914 -15.32448 14.63140 0 0 0
162 -20.06733 -22.93736 15.43989 0 0 0
163 -20.37921 -22.22181 16.08511 0 0 0
164 -21.25435 -22.05012 16.42014 0 0 0
165 -21.51786 -22.48412 17.24236 0 0 0
166 -21.86743 -22.24192 18.10769 0 0 0
167 -21.55650 -23.22097 18.47302 0 0 0
168 -21.24885 -23.84351 19.22429 0 0 0
169 -21.49581 -24.22700 20.10637 0 0 0
170 -21.47868 -24.97525 20.81072 0 0 0
171 -22.47168 -24.98298 21.03764 0 0 0
172 -22.50665 -25.41092 21.85602 0 0 0
173 -23.43983 -25.26452 22.05637 0 0 0
174 -22.93920 -25.52823 22.87405 0 0 0
175 -22.54949 -25.74279 23.81180 0 0 0
176 -21.80289 -26.35653 24.12540 0 0 0
177 -21.38696 -27.16655 24.84506 0 0 0
178 -21.34806 -27.99272 24.28836 0 0 0
179 -22.11733 -28.58647 24.67109 0 0 0
180 -22.64494 -29.37657 24.48101 0 0 0
181 -22.97594 -30.17862 24.89842 0 0 0
182 -20.29459 -22.93564 14.34866 0 0 0
183 -20.16791 -23.28067 13.48016 0 0 0
184 -20.10630 -24.24100 13.13884 0 0 0
185 -20.68691 -25.03525 13.20589 0 0 0
186 -20.81772 -25.99525 12.90203 0 0 0
187 -21.65135 -26.63343 12.99261 0 0 0
188 -22.08415 -27.47882 12.81304 0 0 0
189 -21.88672 -28.49980 12.85621 0 0 0
190 -22.61697 -29.11969 12.69331 0 0 0
191 -23.17340 -29.86484 12.34651 0 0 0
192 -22.52431 -29.54238 11.67851 0 0 0
193 -21.65883 -29.90252 11.84293 0 0 0
194 -21.23632 -30.21718 11.03988 0 0 0
195 -21.13662 -29.60600 10.30429 0 0 0
196 -21.83711 -28.93954 10.55538 0 0 0
197 -22.21840 -27.97448 10.77173 0 0 0
198 -22.93349 -27.27048 10.84755 0 0 0
199 -23.45434 -27.23457 10.03927 0 0 0
200 -23.34210 -28.18070 9.83807 0 0 0
201 -23.96356 -28.86810 9.60945 0 0 0
ITEM: TIMESTEP
3000
ITEM: NUMBER OF ATOMS
201
ITEM: BOX BOUNDS pp pp pp
-1.0000000000000000e+03 1.0000000000000000e+03
-1.0000000000000000e+03 1.0000000000000000e+03
-1.0000000000000000e+03 1.0000000000000000e+03
ITEM: ATOMS id x y z ix iy iz
1 -2.17345 2.11269 5.45260 0 0 0
2 -1.69898 2.78102 5.89191 0 0 0
3 -2.50502 2.36289 6.32844 0 0 0
4 -3.05751 1.57246 6.52180 0 0 0
5 -2.76301 0.92457 5.82087 0 0 0
6 -2.15588 0.81462 6.70507 0 0 0
7 -1.47157 1.08180 7.34347 0 0 0
8 -1.33285 0.58130 8.17241 0 0 0
9 -2.09681 0.21762 8.58979 0 0 0
10 -1.98122 -0.04683 9.44781 0 0 0
11 -1.35161 -0.32603 10.13600 0 0 0
12 -0.59453 -0.30483 10.77759 0 0 0
13 -0.32073 -0.84426 11.52972 0 0 0
14 -0.20462 -1.42700 12.31251 0 0 0
15 -0.17769 -1.52351 13.30355 0 0 0
16 0.18597 -2.01175 14.09957 0 0 0
17 0.74629 -2.47277 14.73210 0 0 0
18 1.00117 -3.30299 15.29926 0 0 0
19 0.19491 -3.44397 15.79633 0 0 0
20 -0.62390 -3.73578 16.21993 0 0 0
21 -0.97102 -3.91837 17.17300 0 0 0
22 -0.93471 -3.20912 17.90558 0 0 0
23 -0.39576 -2.70444 18.56847 0 0 0
24 -0.79043 -1.84103 18.43112 0 0 0
25 -0.98939 -1.20097 19.15168 0 0 0
26 -0.75551 -0.30321 18.89045 0 0 0
27 0.05660 0.18989 18.66470 0 0 0
28 0.11865 0.04743 19.63473 0 0 0
29 -0.68249 0.12851 20.17100 0 0 0
30 -1.53958 0.53541 19.81053 0 0 0
31 -2.07306 0.64364 20.59169 0 0 0
32 -2.06135 0.83104 21.54901 0 0 0
33 -3.03058 0.99989 21.46526 0 0 0
34 -3.90891 0.92324 21.90497 0 0 0
35 -4.62940 1.48345 22.14410 0 0 0
36 -5.29008 2.16519 22.24340 0 0 0
37 -6.10569 2.27570 22.74365 0 0 0
38 -5.74397 3.18806 22.57006 0 0 0
39 -5.76895 4.15263 22.46904 0 0 0
40 -5.19329 4.68199 21.91103 0 0 0
41 -4.78903 3.94047 21.48026 0 0 0
42 -0.79638 -4.12702 18.16448 0 0 0
43 -0.01359 -4.43072 18.84421 0 0 0
44 0.28026 -3.56596 18.78333 0 0 0
45 0.67612 -2.72165 18.99346 0 0 0
46 1.58802 -2.46229 19.32570 0 0 0
47 1.47384 -1.57647 19.53014 0 0 0
48 2.27434 -1.54645 20.07176 0 0 0
49 2.39259 -1.85840 21.02184 0 0 0
50 2.98166 -2.16657 21.66478 0 0 0
51 3.56563 -2.08589 22.41025 0 0 0
52 4.03133 -1.46778 21.82504 0 0 0
53 4.62683 -0.80884 21.46453 0 0 0
54 5.45345 -1.17182 21.75000 0 0 0
55 6.46731 -0.77942 21.72619 0 0 0
56 7.00144 -0.08887 22.25600 0 0 0
57 6.74715 0.75494 22.65000 0 0 0
58 7.23135 1.03129 21.87996 0 0 0
59 7.04868 1.66038 21.10918 0 0 0
60 6.81554 2.58035 20.91138 0 0 0
61 7.45940 2.98452 20.35286 0 0 0
62 -0.60628 -4.80624 17.15990 0 0 0
63 -0.69346 -5.45411 16.41498 0 0 0
64 -1.07328 -6.27243 16.80680 0 0 0
65 -0.86082 -7.26922 16.73679 0 0 0
66 -0.62589 -8.07406 16.20827 0 0 0
67 -1.43006 -8.48493 15.76965 0 0 0
68 -1.91006 -9.17751 15.13588 0 0 0
69 -2.31362 -8.67032 14.43091 0 0 0
70 -2.90905 -9.09148 13.78860 0 0 0
71 -2.74523 -9.88017 14.36314 0 0 0
72 -3.10521 -10.78848 14.53194 0 0 0
73 -3.22283 -11.66539 13.94429 0 0 0
74 -3.44897 -12.52074 13.66172 0 0 0
75 -3.69577 -13.38835 13.19389 0 0 0
76 -3.56118 -14.36641 12.94156 0 0 0
77 -3.92403 -14.98883 13.59123 0 0 0
78 -4.81824 -15.26346 13.24283 0 0 0
79 -5.59407 -15.77103 13.59111 0 0 0
80 -5.03959 -16.57607 13.75606 0 0 0
81 -5.53365 -17.42165 13.79837 0 0 0
82 -4.57338 -17.58444 13.90446 0 0 0
83 -3.76613 -17.97582 14.41845 0 0 0
84 -2.89772 -18.38540 14.70471 0 0 0
85 -2.52097 -19.24779 14.55173 0 0 0
86 -1.82026 -19.99644 14.40250 0 0 0
87 -1.03266 -19.78073 14.88443 0 0 0
88 -0.17373 -20.36213 14.83935 0 0 0
89 0.82725 -20.47480 14.71655 0 0 0
90 1.25675 -21.34018 14.47513 0 0 0
91 2.03904 -21.90488 14.24068 0 0 0
92 2.97406 -22.37873 14.22353 0 0 0
93 2.53957 -22.97315 14.79134 0 0 0
94 3.06572 -23.29279 15.52785 0 0 0
95 3.59391 -24.10925 15.52272 0 0 0
96 4.32462 -23.64338 16.13733 0 0 0
97 4.39586 -24.62380 16.50857 0 0 0
98 4.83337 -25.00518 15.76545 0 0 0
99 5.79697 -24.80327 15.96296 0 0 0
100 6.57844 -25.20320 15.54908 0 0 0
101 6.56899 -25.96254 14.87157 0 0 0
102 -5.64870 -16.95726 12.91095 0 0 0
103 -5.07804 -16.25913 12.46899 0 0 0
104 -4.96335 -15.62824 11.77498 0 0 0
105 -5.32446 -14.75461 11.92166 0 0 0
106 -5.59717 -14.09357 11.25279 0 0 0
107 -4.90949 -13.86918 10.66793 0 0 0
108 -4.89196 -13.61921 9.68032 0 0 0
109 -4.98414 -14.52262 9.35000 0 0 0
110 -5.70865 -15.13620 9.27190 0 0 0
111 -5.23520 -15.96307 9.17202 0 0 0
112 -4.25691 -16.04223 8.92099 0 0 0
113 -3.40779 -15.53474 9.00573 0 0 0
114 -3.41319 -14.92017 8.25869 0 0 0
115 -4.02030 -15.57088 7.96346 0 0 0
116 -4.27327 -15.77809 6.99675 0 0 0
117 -4.37272 -15.91787 6.10933 0 0 0
118 -4.76546 -16.11380 5.23150 0 0 0
119 -4.84002 -15.18753 4.72883 0 0 0
120 -5.31789 -14.95361 3.85268 0 0 0
121 -5.80576 -14.11107 3.66398 0 0 0
122 -6.49615 -17.63857 13.75087 0 0 0
123 -7.47154 -17.41885 13.59883 0 0 0
124 -7.84444 -18.04464 14.31639 0 0 0
125 -8.72086 -18.08759 14.80309 0 0 0
126 -9.48076 -18.56926 14.49416 0 0 0
127 -10.38645 -18.84692 14.65613 0 0 0
128 -11.25659 -18.75698 14.39495 0 0 0
129 -12.21614 -19.02690 14.25325 0 0 0
130 -13.06756 -18.52155 14.04914 0 0 0
131 -13.79724 -19.06216 13.64288 0 0 0
132 -14.34606 -19.82897 13.78508 0 0 0
133 -14.96685 -19.95218 14.45131 0 0 0
134 -15.89384 -19.74381 14.80696 0 0 0
135 -16.07227 -20.48015 15.43459 0 0 0
136 -16.62462 -19.90699 16.08336 0 0 0
137 -17.37683 -20.52821 16.47471 0 0 0
138 -17.96418 -20.02279 15.84843 0 0 0
139 -18.60919 -20.68212 15.45170 0 0 0
140 -19.57433 -20.96197 15.25144 0 0 0
141 -20.53065 -21.18379 15.11696 0 0 0
142 -21.03474 -20.43870 15.34769 0 0 0
143 -21.82307 -20.04935 15.05899 0 0 0
144 -22.53091 -19.57100 14.53699 0 0 0
145 -22.57950 -18.59400 14.23557 0 0 0
146 -23.44666 -18.23204 13.90312 0 0 0
147 -23.84675 -17.46920 13.45274 0 0 0
148 -24.43744 -17.35243 14.21497 0 0 0
149 -25.23954 -16.93082 13.74517 0 0 0
150 -26.13698 -16.64519 13.54319 0 0 0
151 -26.21351 -17.57303 13.99416 0 0 0
152 -27.04983 -17.96117 13.79506 0 0 0
153 -27.71478 -18.22569 13.19112 0 0 0
154 -28.29772 -17.47971 12.90174 0 0 0
155 -28.46885 -17.50443 11.92438 0 0 0
156 -28.41560 -17.83583 10.91359 0 0 0
157 -28.80827 -17.70998 9.99405 0 0 0
158 -29.30860 -16.99298 9.81773 0 0 0
159 -30.13811 -16.62232 9.78848 0 0 0
160 -31.02527 -16.19580 9.45928 0 0 0
161 -30.56101 -15.35414 9.44895 0 0 0
162 -20.15205 -21.93968 15.65918 0 0 0
163 -21.00709 -22.45452 15.38147 0 0 0
164 -21.29726 -23.45599 15.32562 0 0 0
165 -21.36643 -23.90915 16.18049 0 0 0
166 -22.00793 -23.33222 16.65858 0 0 0
167 -22.70942 -22.97658 17.31509 0 0 0
168 -23.30015 -22.55309 17.96787 0 0 0
169 -23.62307 -22.71009 18.95303 0 0 0
170 -22.82719 -22.37420 19.30438 0 0 0
171 -22.42648 -22.50326 20.17183 0 0 0
172 -22.58442 -23.12262 21.03246 0 0 0
173 -22.99861 -23.87253 20.72477 0 0 0
174 -23.01150 -24.43262 19.88367 0 0 0
175 -23.97513 -24.53936 20.09598 0 0 0
176 -23.33532 -25.26848 20.34780 0 0 0
177 -22.85716 -25.52921 21.13201 0 0 0
178 -22.02133 -25.02927 21.14479 0 0 0
179 -21.44638 -24.27221 21.12521 0 0 0
180 -21.15486 -23.41610 20.86914 0 0 0
181 -20.86666 -24.16526 20.27601 0 0 0
182 -21.32884 -21.61092 15.52198 0 0 0
183 -22.27321 -21.75770 15.33882 0 0 0
184 -22.51604 -22.69031 15.27211 0 0 0