bb160nuc3bl40bn4d30tot400

401 atoms
400 bonds
408 angles

1 atom types
1 bond types
1 angle types

-1000 1000 xlo xhi
-1000 1000 ylo yhi
-1000 1000 zlo zhi

Masses

1 1

Atoms

1	1	1	0.0	0.0	0.0	0	0	0
2	1	1	0.0	0.0	1.0	0	0	0
3	1	1	0.0	-0.49999999999999994	1.8660254037844388	0	0	0
4	1	1	0.0	0.0	2.7320508075688776	0	0	0
5	1	1	0.0	-0.49999999999999994	3.5980762113533165	0	0	0
6	1	1	0.0	0.0	4.464101615137755	0	0	0
7	1	1	0.0	-0.49999999999999994	5.330127018922194	0	0	0
8	1	1	0.0	0.0	6.196152422706632	0	0	0
9	1	1	0.0	-0.49999999999999994	7.06217782649107	0	0	0
10	1	1	0.0	0.0	7.928203230275509	0	0	0
11	1	1	0.0	-0.49999999999999994	8.794228634059948	0	0	0
12	1	1	0.0	0.0	9.660254037844387	0	0	0
13	1	1	0.0	-0.49999999999999994	10.526279441628827	0	0	0
14	1	1	0.0	0.0	11.392304845413266	0	0	0
15	1	1	0.0	-0.49999999999999994	12.258330249197705	0	0	0
16	1	1	0.0	0.0	13.124355652982144	0	0	0
17	1	1	0.0	-0.49999999999999994	13.990381056766584	0	0	0
18	1	1	0.0	0.0	14.856406460551023	0	0	0
19	1	1	0.0	-0.49999999999999994	15.722431864335462	0	0	0
20	1	1	0.0	0.0	16.5884572681199	0	0	0
21	1	1	0.0	-0.49999999999999994	17.454482671904337	0	0	0
22	1	1	0.0	0.0	18.320508075688775	0	0	0
23	1	1	0.0	-0.49999999999999994	19.186533479473212	0	0	0
24	1	1	0.0	0.0	20.05255888325765	0	0	0
25	1	1	0.0	-0.49999999999999994	20.918584287042087	0	0	0
26	1	1	0.0	0.0	21.784609690826525	0	0	0
27	1	1	0.0	-0.49999999999999994	22.650635094610962	0	0	0
28	1	1	0.0	0.0	23.5166604983954	0	0	0
29	1	1	0.0	-0.49999999999999994	24.382685902179837	0	0	0
30	1	1	0.0	0.0	25.248711305964274	0	0	0
31	1	1	0.0	-0.49999999999999994	26.114736709748712	0	0	0
32	1	1	0.0	0.0	26.98076211353315	0	0	0
33	1	1	0.0	-0.49999999999999994	27.846787517317587	0	0	0
34	1	1	0.0	0.0	28.712812921102024	0	0	0
35	1	1	0.0	-0.49999999999999994	29.578838324886462	0	0	0
36	1	1	0.0	0.0	30.4448637286709	0	0	0
37	1	1	0.0	-0.49999999999999994	31.310889132455337	0	0	0
38	1	1	0.0	0.0	32.17691453623978	0	0	0
39	1	1	0.0	-0.49999999999999994	33.04293994002422	0	0	0
40	1	1	0.0	0.0	33.90896534380866	0	0	0
41	1	1	0.0	-0.49999999999999994	34.7749907475931	0	0	0
42	1	1	-0.08364425876999462	0.14622784147498252	35.53353752589844	0	0	0
43	1	1	-0.16728851753998908	0.3266041796724312	36.513572226607195	0	0	0
44	1	1	-0.2509327763099835	1.265527296175216	36.84737908584097	0	0	0
45	1	1	-0.33457703507997794	1.4459036343726646	37.82741378654973	0	0	0
46	1	1	-0.41822129384997236	2.3848267508754493	38.1612206457835	0	0	0
47	1	1	-0.5018655526199668	2.565203089072898	39.14125534649226	0	0	0
48	1	1	-0.5855098113899613	3.5041262055756826	39.47506220572603	0	0	0
49	1	1	-0.6691540701599558	3.684502543773131	40.45509690643479	0	0	0
50	1	1	-0.7527983289299502	4.623425660275916	40.788903765668564	0	0	0
51	1	1	-0.8364425876999447	4.803801998473364	41.76893846637732	0	0	0
52	1	1	-0.9200868464699392	5.74272511497615	42.102745325611096	0	0	0
53	1	1	-1.0037311052399336	5.923101453173598	43.08278002631985	0	0	0
54	1	1	-1.087375364009928	6.862024569676383	43.41658688555363	0	0	0
55	1	1	-1.1710196227799223	7.042400907873832	44.396621586262384	0	0	0
56	1	1	-1.2546638815499167	7.981324024376617	44.73042844549616	0	0	0
57	1	1	-1.338308140319911	8.161700362574067	45.710463146204916	0	0	0
58	1	1	-1.4219523990899054	9.100623479076852	46.04427000543869	0	0	0
59	1	1	-1.5055966578598998	9.280999817274301	47.02430470614745	0	0	0
60	1	1	-1.5892409166298942	10.219922933777086	47.35811156538122	0	0	0
61	1	1	-1.6728851753998886	10.400299271974536	48.33814626608998	0	0	0
62	1	1	-1.756529434169883	11.339222388477321	48.67195312532375	0	0	0
63	1	1	-1.8401736929398773	11.51959872667477	49.65198782603251	0	0	0
64	1	1	-1.9238179517098717	12.458521843177556	49.985794685266285	0	0	0
65	1	1	-2.0074622104798663	12.638898181375005	50.96582938597504	0	0	0
66	1	1	-2.0911064692498607	13.57782129787779	51.299636245208816	0	0	0
67	1	1	-2.174750728019855	13.75819763607524	52.27967094591757	0	0	0
68	1	1	-2.2583949867898494	14.697120752578025	52.61347780515135	0	0	0
69	1	1	-2.3420392455598438	14.877497090775474	53.593512505860105	0	0	0
70	1	1	-2.425683504329838	15.81642020727826	53.92731936509388	0	0	0
71	1	1	-2.5093277630998325	15.996796545475709	54.907354065802636	0	0	0
72	1	1	-2.592972021869827	16.935719661978492	55.24116092503641	0	0	0
73	1	1	-2.6766162806398213	17.11609600017594	56.22119562574517	0	0	0
74	1	1	-2.7602605394098156	18.055019116678725	56.55500248497894	0	0	0
75	1	1	-2.84390479817981	18.235395454876173	57.5350371856877	0	0	0
76	1	1	-2.9275490569498044	19.174318571378958	57.868844044921474	0	0	0
77	1	1	-3.0111933157197988	19.354694909576406	58.84887874563023	0	0	0
78	1	1	-3.094837574489793	20.29361802607919	59.182685604864005	0	0	0
79	1	1	-3.1784818332597875	20.47399436427664	60.16272030557276	0	0	0
80	1	1	-3.262126092029782	21.412917480779424	60.49652716480654	0	0	0
81	1	1	-3.3457703507997762	21.59329381897687	61.47656186551529	0	0	0
82	1	1	0.8549534004768646	-1.0107358710853291	34.865564215009115	0	0	0
83	1	1	1.7099068009537275	-1.498332843777205	34.68863520315756	0	0	0
84	1	1	2.5648602014305903	-1.895356349053066	35.022442062391335	0	0	0
85	1	1	3.419813601907453	-2.382953321744942	34.84551305053978	0	0	0
86	1	1	4.2747670023843165	-2.779976827020803	35.179319909773554	0	0	0
87	1	1	5.12972040286118	-3.267573799712679	35.002390897922	0	0	0
88	1	1	5.984673803338043	-3.66459730498854	35.33619775715577	0	0	0
89	1	1	6.839627203814906	-4.152194277680415	35.15926874530422	0	0	0
90	1	1	7.69458060429177	-4.549217782956276	35.49307560453799	0	0	0
91	1	1	8.549534004768633	-5.036814755648152	35.31614659268644	0	0	0
92	1	1	9.404487405245495	-5.433838260924013	35.64995345192021	0	0	0
93	1	1	10.259440805722358	-5.921435233615888	35.473024440068656	0	0	0
94	1	1	11.11439420619922	-6.318458738891749	35.80683129930243	0	0	0
95	1	1	11.969347606676083	-6.806055711583625	35.629902287450875	0	0	0
96	1	1	12.824301007152945	-7.203079216859486	35.96370914668465	0	0	0
97	1	1	13.679254407629807	-7.690676189551361	35.786780134833094	0	0	0
98	1	1	14.53420780810667	-8.087699694827222	36.12058699406687	0	0	0
99	1	1	15.389161208583532	-8.575296667519098	35.94365798221531	0	0	0
100	1	1	16.244114609060397	-8.972320172794959	36.27746484144909	0	0	0
101	1	1	17.09906800953726	-9.459917145486834	36.10053582959753	0	0	0
102	1	1	17.95402141001412	-9.856940650762695	36.43434268883131	0	0	0
103	1	1	18.808974810490984	-10.34453762345457	36.25741367697975	0	0	0
104	1	1	19.663928210967846	-10.741561128730432	36.59122053621353	0	0	0
105	1	1	20.51888161144471	-11.229158101422307	36.41429152436197	0	0	0
106	1	1	21.37383501192157	-11.626181606698168	36.748098383595746	0	0	0
107	1	1	22.228788412398433	-12.113778579390043	36.57116937174419	0	0	0
108	1	1	23.083741812875296	-12.510802084665904	36.904976230977965	0	0	0
109	1	1	23.938695213352158	-12.99839905735778	36.72804721912641	0	0	0
110	1	1	24.79364861382902	-13.395422562633641	37.061854078360184	0	0	0
111	1	1	25.648602014305883	-13.883019535325516	36.88492506650863	0	0	0
112	1	1	26.503555414782745	-14.280043040601377	37.218731925742404	0	0	0
113	1	1	27.358508815259608	-14.767640013293253	37.04180291389085	0	0	0
114	1	1	28.21346221573647	-15.164663518569114	37.37560977312462	0	0	0
115	1	1	29.068415616213333	-15.65226049126099	37.19868076127307	0	0	0
116	1	1	29.923369016690195	-16.04928399653685	37.53248762050684	0	0	0
117	1	1	30.778322417167058	-16.536880969228726	37.355558608655286	0	0	0
118	1	1	31.63327581764392	-16.933904474504587	37.68936546788906	0	0	0
119	1	1	32.488229218120786	-17.421501447196462	37.512436456037506	0	0	0
120	1	1	33.34318261859765	-17.818524952472323	37.84624331527128	0	0	0
121	1	1	34.19813601907452	-18.3061219251642	37.669314303419725	0	0	0
122	1	1	-0.7713091417068761	-1.1362022592403125	34.79312616203359	0	0	0
123	1	1	-1.542618283413751	-1.696237284907718	34.49073076202705	0	0	0
124	1	1	-2.313927425120626	-2.238136896134638	34.82453762126082	0	0	0
125	1	1	-3.0852365668275006	-2.7981719218020435	34.522142221254285	0	0	0
126	1	1	-3.8565457085343753	-3.340071533028963	34.85594908048806	0	0	0
127	1	1	-4.62785485024125	-3.900106558696369	34.55355368048152	0	0	0
128	1	1	-5.399163991948125	-4.442006169923289	34.887360539715296	0	0	0
129	1	1	-6.170473133655	-5.002041195590694	34.58496513970876	0	0	0
130	1	1	-6.941782275361875	-5.543940806817614	34.91877199894253	0	0	0
131	1	1	-7.713091417068751	-6.10397583248502	34.61637659893599	0	0	0
132	1	1	-8.484400558775626	-6.645875443711939	34.95018345816977	0	0	0
133	1	1	-9.2557097004825	-7.205910469379345	34.64778805816323	0	0	0
134	1	1	-10.027018842189374	-7.747810080606265	34.981594917397004	0	0	0
135	1	1	-10.798327983896248	-8.307845106273671	34.679199517390465	0	0	0
136	1	1	-11.569637125603123	-8.849744717500592	35.01300637662424	0	0	0
137	1	1	-12.340946267309997	-9.409779743167997	34.7106109766177	0	0	0
138	1	1	-13.112255409016871	-9.951679354394917	35.044417835851476	0	0	0
139	1	1	-13.883564550723746	-10.511714380062323	34.74202243584494	0	0	0
140	1	1	-14.65487369243062	-11.053613991289243	35.07582929507871	0	0	0
141	1	1	-15.426182834137494	-11.613649016956648	34.77343389507217	0	0	0
142	1	1	-16.19749197584437	-12.155548628183569	35.10724075430595	0	0	0
143	1	1	-16.968801117551244	-12.715583653850974	34.80484535429941	0	0	0
144	1	1	-17.74011025925812	-13.257483265077894	35.138652213533184	0	0	0
145	1	1	-18.511419400964996	-13.8175182907453	34.836256813526646	0	0	0
146	1	1	-19.282728542671872	-14.35941790197222	35.17006367276042	0	0	0
147	1	1	-20.05403768437875	-14.919452927639625	34.86766827275388	0	0	0
148	1	1	-20.825346826085624	-15.461352538866546	35.20147513198766	0	0	0
149	1	1	-21.5966559677925	-16.021387564533953	34.89907973198112	0	0	0
150	1	1	-22.367965109499377	-16.563287175760873	35.23288659121489	0	0	0
151	1	1	-23.139274251206253	-17.12332220142828	34.930491191208354	0	0	0
152	1	1	-23.91058339291313	-17.6652218126552	35.26429805044213	0	0	0
153	1	1	-24.681892534620005	-18.225256838322608	34.96190265043559	0	0	0
154	1	1	-25.45320167632688	-18.767156449549528	35.295709509669365	0	0	0
155	1	1	-26.224510818033757	-19.327191475216935	34.993314109662826	0	0	0
156	1	1	-26.995819959740633	-19.869091086443856	35.3271209688966	0	0	0
157	1	1	-27.76712910144751	-20.429126112111263	35.02472556889006	0	0	0
158	1	1	-28.538438243154385	-20.971025723338183	35.35853242812384	0	0	0
159	1	1	-29.30974738486126	-21.53106074900559	35.0561370281173	0	0	0
160	1	1	-30.081056526568137	-22.07296036023251	35.38994388735107	0	0	0
161	1	1	-30.852365668275013	-22.632995385899918	35.087548487344534	0	0	0
162	1	1	-31.07899344132982	-23.300101742770643	35.797202601052675	0	0	0
163	1	1	-31.30562121438463	-24.23265985170085	36.078227912988694	0	0	0
164	1	1	-31.532248987439438	-24.455563846922914	37.02635958179544	0	0	0
165	1	1	-31.758876760494246	-25.38812195585312	37.30738489373146	0	0	0
166	1	1	-31.985504533549054	-25.611025951075185	38.255516562538205	0	0	0
167	1	1	-32.21213230660386	-26.54358406000539	38.536541874474224	0	0	0
168	1	1	-32.43876007965867	-26.766488055227455	39.48467354328097	0	0	0
169	1	1	-32.66538785271348	-27.69904616415766	39.76569885521699	0	0	0
170	1	1	-32.89201562576829	-27.921950159379726	40.713830524023734	0	0	0
171	1	1	-33.118643398823096	-28.85450826830993	40.994855835959754	0	0	0
172	1	1	-33.345271171877904	-29.077412263531997	41.9429875047665	0	0	0
173	1	1	-33.57189894493271	-30.009970372462202	42.22401281670252	0	0	0
174	1	1	-33.79852671798752	-30.232874367684268	43.172144485509264	0	0	0
175	1	1	-34.02515449104233	-31.165432476614473	43.453169797445284	0	0	0
176	1	1	-34.25178226409714	-31.38833647183654	44.40130146625203	0	0	0
177	1	1	-34.478410037151946	-32.32089458076675	44.68232677818805	0	0	0
178	1	1	-34.705037810206754	-32.54379857598881	45.630458446994794	0	0	0
179	1	1	-34.93166558326156	-33.47635668491902	45.911483758930814	0	0	0
180	1	1	-35.15829335631637	-33.69926068014108	46.85961542773756	0	0	0
181	1	1	-35.38492112937118	-34.63181878907129	47.14064073967358	0	0	0
182	1	1	-35.61154890242599	-34.85472278429335	48.088772408480324	0	0	0
183	1	1	-35.838176675480796	-35.78728089322356	48.369797720416344	0	0	0
184	1	1	-36.064804448535604	-36.01018488844562	49.31792938922309	0	0	0
185	1	1	-36.29143222159041	-36.94274299737583	49.59895470115911	0	0	0
186	1	1	-36.51805999464522	-37.16564699259789	50.547086369965854	0	0	0
187	1	1	-36.74468776770003	-38.0982051015281	50.82811168190187	0	0	0
188	1	1	-36.97131554075484	-38.32110909675016	51.77624335070862	0	0	0
189	1	1	-37.197943313809645	-39.25366720568037	52.05726866264464	0	0	0
190	1	1	-37.424571086864454	-39.476571200902434	53.00540033145138	0	0	0
191	1	1	-37.65119885991926	-40.40912930983264	53.2864256433874	0	0	0
192	1	1	-37.87782663297407	-40.632033305054705	54.23455731219415	0	0	0
193	1	1	-38.10445440602888	-41.564591413984914	54.51558262413017	0	0	0
194	1	1	-38.33108217908369	-41.787495409206976	55.46371429293691	0	0	0
195	1	1	-38.557709952138495	-42.720053518137185	55.74473960487293	0	0	0
196	1	1	-38.7843377251933	-42.94295751335925	56.69287127367968	0	0	0
197	1	1	-39.01096549824811	-43.875515622289456	56.9738965856157	0	0	0
198	1	1	-39.23759327130292	-44.09841961751152	57.92202825442244	0	0	0
199	1	1	-39.46422104435773	-45.030977726441726	58.20305356635846	0	0	0
200	1	1	-39.69084881741254	-45.25388172166379	59.15118523516521	0	0	0
201	1	1	-39.917476590467345	-46.186439830594	59.43221054710123	0	0	0
202	1	1	-30.60636551166628	-23.113237271614594	34.24561520367314	0	0	0
203	1	1	-30.360365355057546	-23.10817230276915	33.27635864886473	0	0	0
204	1	1	-30.114365198448812	-23.9450406175951	32.787343979770995	0	0	0
205	1	1	-29.86836504184008	-23.93997564874966	31.81808742496258	0	0	0
206	1	1	-29.622364885231345	-24.776843963575608	31.329072755868843	0	0	0
207	1	1	-29.37636472862261	-24.771778994730166	30.35981620106043	0	0	0
208	1	1	-29.130364572013878	-25.608647309556115	29.87080153196669	0	0	0
209	1	1	-28.884364415405145	-25.603582340710673	28.901544977158277	0	0	0
210	1	1	-28.63836425879641	-26.440450655536623	28.41253030806454	0	0	0
211	1	1	-28.392364102187678	-26.43538568669118	27.443273753256126	0	0	0
212	1	1	-28.146363945578944	-27.27225400151713	26.954259084162388	0	0	0
213	1	1	-27.90036378897021	-27.267189032671688	25.985002529353974	0	0	0
214	1	1	-27.654363632361477	-28.104057347497637	25.495987860260236	0	0	0
215	1	1	-27.408363475752743	-28.098992378652195	24.526731305451822	0	0	0
216	1	1	-27.16236331914401	-28.935860693478144	24.037716636358084	0	0	0
217	1	1	-26.916363162535276	-28.930795724632702	23.06846008154967	0	0	0
218	1	1	-26.670363005926543	-29.76766403945865	22.579445412455932	0	0	0
219	1	1	-26.42436284931781	-29.76259907061321	21.61018885764752	0	0	0
220	1	1	-26.178362692709076	-30.59946738543916	21.12117418855378	0	0	0
221	1	1	-25.932362536100342	-30.594402416593717	20.151917633745366	0	0	0
222	1	1	-25.68636237949161	-31.431270731419666	19.66290296465163	0	0	0
223	1	1	-25.440362222882875	-31.426205762574224	18.693646409843215	0	0	0
224	1	1	-25.19436206627414	-32.26307407740017	18.204631740749477	0	0	0
225	1	1	-24.948361909665408	-32.258009108554724	17.235375185941063	0	0	0
226	1	1	-24.702361753056675	-33.09487742338067	16.746360516847325	0	0	0
227	1	1	-24.45636159644794	-33.08981245453523	15.777103962038913	0	0	0
228	1	1	-24.210361439839208	-33.92668076936118	15.288089292945177	0	0	0
229	1	1	-23.964361283230474	-33.92161580051573	14.318832738136765	0	0	0
230	1	1	-23.71836112662174	-34.75848411534168	13.829818069043029	0	0	0
231	1	1	-23.472360970013007	-34.753419146496235	12.860561514234616	0	0	0
232	1	1	-23.226360813404273	-35.590287461322184	12.37154684514088	0	0	0
233	1	1	-22.98036065679554	-35.58522249247674	11.402290290332468	0	0	0
234	1	1	-22.734360500186806	-36.42209080730269	10.913275621238732	0	0	0
235	1	1	-22.488360343578073	-36.41702583845724	9.94401906643032	0	0	0
236	1	1	-22.24236018696934	-37.25389415328319	9.455004397336584	0	0	0
237	1	1	-21.996360030360606	-37.248829184437746	8.485747842528172	0	0	0
238	1	1	-21.750359873751872	-38.085697499263695	7.996733173434435	0	0	0
239	1	1	-21.50435971714314	-38.08063253041825	7.027476618626022	0	0	0
240	1	1	-21.258359560534405	-38.9175008452442	6.538461949532285	0	0	0
241	1	1	-21.01235940392567	-38.91243587639875	5.5692053947238715	0	0	0
242	1	1	-31.644142898103347	-22.046477742251334	34.917002681139024	0	0	0
243	1	1	-32.43592012793168	-21.453265659981117	35.062564502280445	0	0	0
244	1	1	-33.227697357760015	-21.03059938391641	34.62160867977328	0	0	0
245	1	1	-34.01947458758835	-20.437387301646194	34.7671705009147	0	0	0
246	1	1	-34.81125181741668	-20.014721025581487	34.32621467840754	0	0	0
247	1	1	-35.603029047245016	-19.42150894331127	34.47177649954896	0	0	0
248	1	1	-36.39480627707335	-18.998842667246564	34.030820677041795	0	0	0
249	1	1	-37.186583506901684	-18.405630584976347	34.176382498183216	0	0	0
250	1	1	-37.97836073673002	-17.98296430891164	33.73542667567605	0	0	0
251	1	1	-38.77013796655835	-17.389752226641424	33.88098849681747	0	0	0
252	1	1	-39.561915196386686	-16.967085950576717	33.44003267431031	0	0	0
253	1	1	-40.35369242621502	-16.3738738683065	33.58559449545173	0	0	0
254	1	1	-41.14546965604335	-15.951207592241795	33.144638672944566	0	0	0
255	1	1	-41.93724688587169	-15.35799550997158	33.29020049408599	0	0	0
256	1	1	-42.72902411570002	-14.935329233906876	32.84924467157882	0	0	0
257	1	1	-43.520801345528355	-14.34211715163666	32.994806492720244	0	0	0
258	1	1	-44.31257857535669	-13.919450875571956	32.55385067021308	0	0	0
259	1	1	-45.10435580518502	-13.32623879330174	32.6994124913545	0	0	0
260	1	1	-45.89613303501336	-12.903572517237036	32.25845666884734	0	0	0
261	1	1	-46.68791026484169	-12.310360434966821	32.40401848998876	0	0	0
262	1	1	-47.479687494670024	-11.887694158902116	31.963062667481598	0	0	0
263	1	1	-48.27146472449836	-11.294482076631901	32.10862448862302	0	0	0
264	1	1	-49.06324195432669	-10.871815800567196	31.667668666115862	0	0	0
265	1	1	-49.855019184155026	-10.278603718296981	31.813230487257282	0	0	0
266	1	1	-50.64679641398336	-9.855937442232277	31.372274664750122	0	0	0
267	1	1	-51.438573643811694	-9.262725359962062	31.517836485891543	0	0	0
268	1	1	-52.23035087364003	-8.840059083897357	31.076880663384383	0	0	0
269	1	1	-53.02212810346836	-8.246847001627142	31.222442484525804	0	0	0
270	1	1	-53.813905333296695	-7.824180725562437	30.781486662018644	0	0	0
271	1	1	-54.60568256312503	-7.230968643292222	30.927048483160064	0	0	0
272	1	1	-55.39745979295336	-6.808302367227517	30.486092660652904	0	0	0
273	1	1	-56.1892370227817	-6.215090284957302	30.631654481794325	0	0	0
274	1	1	-56.98101425261003	-5.792424008892597	30.190698659287165	0	0	0
275	1	1	-57.772791482438365	-5.199211926622382	30.336260480428585	0	0	0
276	1	1	-58.5645687122667	-4.7765456505576775	29.895304657921425	0	0	0
277	1	1	-59.35634594209503	-4.183333568287463	30.040866479062846	0	0	0
278	1	1	-60.148123171923366	-3.7606672922227573	29.599910656555686	0	0	0
279	1	1	-60.9399004017517	-3.167455209952542	29.745472477697106	0	0	0
280	1	1	-61.731677631580034	-2.7447889338878366	29.304516655189946	0	0	0
281	1	1	-62.52345486140837	-2.1515768516176212	29.450078476331367	0	0	0
282	1	1	-62.25122028053223	-1.359609429004498	29.996590996311213	0	0	0
283	1	1	-61.97898569965609	-0.9470017820417702	30.865868433406572	0	0	0
284	1	1	-61.706751118779955	0.012118384900803303	30.94317844788881	0	0	0
285	1	1	-61.43451653790382	0.42472603186353103	31.812455884984168	0	0	0
286	1	1	-61.16228195702768	1.3838461988061046	31.889765899466404	0	0	0
287	1	1	-60.89004737615154	1.7964538457688324	32.75904333656176	0	0	0
288	1	1	-60.617812795275405	2.755574012711406	32.836353351043996	0	0	0
289	1	1	-60.34557821439927	3.1681816596741337	33.70563078813935	0	0	0
290	1	1	-60.07334363352313	4.127301826616707	33.78294080262159	0	0	0
291	1	1	-59.80110905264699	4.539909473579434	34.652218239716944	0	0	0
292	1	1	-59.528874471770855	5.499029640522007	34.72952825419918	0	0	0
293	1	1	-59.25663989089472	5.9116372874847345	35.59880569129454	0	0	0
294	1	1	-58.98440531001858	6.870757454427308	35.67611570577677	0	0	0
295	1	1	-58.71217072914244	7.283365101390035	36.54539314287213	0	0	0
296	1	1	-58.439936148266305	8.242485268332608	36.622703157354366	0	0	0
297	1	1	-58.16770156739017	8.655092915295336	37.49198059444972	0	0	0
298	1	1	-57.89546698651403	9.61421308223791	37.56929060893196	0	0	0
299	1	1	-57.62323240563789	10.026820729200638	38.438568046027314	0	0	0
300	1	1	-57.350997824761755	10.985940896143212	38.51587806050955	0	0	0
301	1	1	-57.07876324388562	11.39854854310594	39.385155497604906	0	0	0
302	1	1	-56.80652866300948	12.357668710048515	39.46246551208714	0	0	0
303	1	1	-56.53429408213334	12.770276357011243	40.3317429491825	0	0	0
304	1	1	-56.262059501257205	13.729396523953817	40.409052963664735	0	0	0
305	1	1	-55.98982492038107	14.142004170916545	41.27833040076009	0	0	0
306	1	1	-55.71759033950493	15.101124337859119	41.35564041524233	0	0	0
307	1	1	-55.44535575862879	15.513731984821847	42.22491785233768	0	0	0
308	1	1	-55.173121177752655	16.47285215176442	42.30222786681992	0	0	0
309	1	1	-54.90088659687652	16.885459798727148	43.171505303915275	0	0	0
310	1	1	-54.62865201600038	17.84457996566972	43.24881531839751	0	0	0
311	1	1	-54.35641743512424	18.257187612632446	44.11809275549287	0	0	0
312	1	1	-54.084182854248105	19.21630777957502	44.195402769975104	0	0	0
313	1	1	-53.81194827337197	19.628915426537745	45.06468020707046	0	0	0
314	1	1	-53.53971369249583	20.588035593480317	45.141990221552696	0	0	0
315	1	1	-53.26747911161969	21.000643240443043	46.01126765864805	0	0	0
316	1	1	-52.995244530743555	21.959763407385616	46.08857767313029	0	0	0
317	1	1	-52.72300994986742	22.372371054348342	46.957855110225644	0	0	0
318	1	1	-52.45077536899128	23.331491221290914	47.03516512470788	0	0	0
319	1	1	-52.17854078811514	23.74409886825364	47.904442561803236	0	0	0
320	1	1	-51.906306207239005	24.703219035196213	47.98175257628547	0	0	0
321	1	1	-51.63407162636287	25.11582668215894	48.85103001338083	0	0	0
322	1	1	-63.23695111454856	-2.6595943201823538	29.93261484634713	0	0	0
323	1	1	-63.95044736768875	-3.340818538533555	30.09649486674834	0	0	0
324	1	1	-64.66394362082895	-3.5395063868689944	30.768392355714283	0	0	0
325	1	1	-65.37743987396914	-4.220730605220196	30.932272376115495	0	0	0
326	1	1	-66.09093612710933	-4.419418453555636	31.604169865081438	0	0	0
327	1	1	-66.80443238024952	-5.100642671906837	31.76804988548265	0	0	0
328	1	1	-67.51792863338972	-5.299330520242277	32.43994737444859	0	0	0
329	1	1	-68.23142488652991	-5.9805547385934785	32.6038273948498	0	0	0
330	1	1	-68.9449211396701	-6.179242586928918	33.27572488381575	0	0	0
331	1	1	-69.65841739281029	-6.86046680528012	33.43960490421696	0	0	0
332	1	1	-70.37191364595049	-7.059154653615559	34.1115023931829	0	0	0
333	1	1	-71.08540989909068	-7.740378871966761	34.27538241358411	0	0	0
334	1	1	-71.79890615223087	-7.9390667203022005	34.94727990255006	0	0	0
335	1	1	-72.51240240537106	-8.620290938653403	35.111159922951266	0	0	0
336	1	1	-73.22589865851126	-8.818978786988842	35.78305741191721	0	0	0
337	1	1	-73.93939491165145	-9.500203005340044	35.94693743231842	0	0	0
338	1	1	-74.65289116479164	-9.698890853675483	36.61883492128437	0	0	0
339	1	1	-75.36638741793183	-10.380115072026685	36.782714941685576	0	0	0
340	1	1	-76.07988367107203	-10.578802920362124	37.45461243065152	0	0	0
341	1	1	-76.79337992421222	-11.260027138713326	37.61849245105273	0	0	0
342	1	1	-77.50687617735241	-11.458714987048765	38.29038994001868	0	0	0
343	1	1	-78.2203724304926	-12.139939205399967	38.454269960419886	0	0	0
344	1	1	-78.9338686836328	-12.338627053735406	39.12616744938583	0	0	0
345	1	1	-79.64736493677299	-13.019851272086608	39.29004746978704	0	0	0
346	1	1	-80.36086118991318	-13.218539120422047	39.96194495875299	0	0	0
347	1	1	-81.07435744305337	-13.89976333877325	40.125824979154196	0	0	0
348	1	1	-81.78785369619357	-14.098451187108688	40.79772246812014	0	0	0
349	1	1	-82.50134994933376	-14.77967540545989	40.96160248852135	0	0	0
350	1	1	-83.21484620247395	-14.97836325379533	41.6334999774873	0	0	0
351	1	1	-83.92834245561414	-15.659587472146532	41.797379997888505	0	0	0
352	1	1	-84.64183870875434	-15.85827532048197	42.46927748685445	0	0	0
353	1	1	-85.35533496189453	-16.539499538833173	42.63315750725566	0	0	0
354	1	1	-86.06883121503472	-16.73818738716861	43.30505499622161	0	0	0
355	1	1	-86.78232746817491	-17.419411605519812	43.468935016622815	0	0	0
356	1	1	-87.4958237213151	-17.61809945385525	44.14083250558876	0	0	0
357	1	1	-88.2093199744553	-18.29932367220645	44.30471252598997	0	0	0
358	1	1	-88.92281622759549	-18.49801152054189	44.97661001495592	0	0	0
359	1	1	-89.63631248073568	-19.17923573889309	45.140490035357125	0	0	0
360	1	1	-90.34980873387588	-19.37792358722853	45.81238752432307	0	0	0
361	1	1	-91.06330498701607	-20.05914780557973	45.97626754472428	0	0	0
362	1	1	-62.87509520004975	-1.8414720195395686	28.566798189354454	0	0	0
363	1	1	-63.22673553869113	-1.131273213635212	27.956907438209466	0	0	0
364	1	1	-63.57837587733251	-1.304354694707767	27.036911854986425	0	0	0
365	1	1	-63.93001621597389	-0.5941558888034105	26.427021103841437	0	0	0
366	1	1	-64.28165655461528	-0.7672373698759658	25.507025520618395	0	0	0
367	1	1	-64.63329689325667	-0.057038563971609224	24.897134769473407	0	0	0
368	1	1	-64.98493723189806	-0.23012004504416445	23.977139186250366	0	0	0
369	1	1	-65.33657757053945	0.48007876086019213	23.367248435105378	0	0	0
370	1	1	-65.68821790918084	0.3069972797876369	22.447252851882336	0	0	0
371	1	1	-66.03985824782222	1.0171960856919935	21.837362100737348	0	0	0
372	1	1	-66.39149858646361	0.8441146046194383	20.917366517514306	0	0	0
373	1	1	-66.743138925105	1.554313410523795	20.30747576636932	0	0	0
374	1	1	-67.09477926374639	1.3812319294512398	19.387480183146277	0	0	0
375	1	1	-67.44641960238778	2.0914307353555963	18.77758943200129	0	0	0
376	1	1	-67.79805994102917	1.9183492542830411	17.857593848778247	0	0	0
377	1	1	-68.14970027967055	2.6285480601873976	17.24770309763326	0	0	0
378	1	1	-68.50134061831194	2.4554665791148422	16.327707514410218	0	0	0
379	1	1	-68.85298095695333	3.165665385019199	15.717816763265228	0	0	0
380	1	1	-69.20462129559472	2.9925839039466435	14.797821180042186	0	0	0
381	1	1	-69.55626163423611	3.702782709851	14.187930428897197	0	0	0
382	1	1	-69.9079019728775	3.529701228778445	13.267934845674155	0	0	0
383	1	1	-70.25954231151889	4.239900034682801	12.658044094529165	0	0	0
384	1	1	-70.61118265016027	4.066818553610246	11.738048511306124	0	0	0
385	1	1	-70.96282298880166	4.777017359514603	11.128157760161134	0	0	0
386	1	1	-71.31446332744305	4.603935878442048	10.208162176938092	0	0	0
387	1	1	-71.66610366608444	5.314134684346405	9.598271425793103	0	0	0
388	1	1	-72.01774400472583	5.14105320327385	8.678275842570061	0	0	0
389	1	1	-72.36938434336722	5.851252009178206	8.068385091425071	0	0	0
390	1	1	-72.7210246820086	5.678170528105651	7.14838950820203	0	0	0
391	1	1	-73.07266502064999	6.388369334010008	6.538498757057041	0	0	0
392	1	1	-73.42430535929138	6.215287852937453	5.618503173833999	0	0	0
393	1	1	-73.77594569793277	6.92548665884181	5.00861242268901	0	0	0
394	1	1	-74.12758603657416	6.752405177769255	4.088616839465969	0	0	0
395	1	1	-74.47922637521555	7.4626039836736116	3.47872608832098	0	0	0
396	1	1	-74.83086671385693	7.289522502601057	2.5587305050979388	0	0	0
397	1	1	-75.18250705249832	7.999721308505413	1.9488397539529498	0	0	0
398	1	1	-75.53414739113971	7.826639827432858	1.0288441707299087	0	0	0
399	1	1	-75.8857877297811	8.536838633337215	0.4189534195849197	0	0	0
400	1	1	-76.23742806842249	8.36375715226466	-0.5010421636381215	0	0	0
401	1	1	-76.58906840706388	9.073955958169016	-1.1109329147831106	0	0	0

Bonds

1	1	1	2
2	1	2	3
3	1	3	4
4	1	4	5
5	1	5	6
6	1	6	7
7	1	7	8
8	1	8	9
9	1	9	10
10	1	10	11
11	1	11	12
12	1	12	13
13	1	13	14
14	1	14	15
15	1	15	16
16	1	16	17
17	1	17	18
18	1	18	19
19	1	19	20
20	1	20	21
21	1	21	22
22	1	22	23
23	1	23	24
24	1	24	25
25	1	25	26
26	1	26	27
27	1	27	28
28	1	28	29
29	1	29	30
30	1	30	31
31	1	31	32
32	1	32	33
33	1	33	34
34	1	34	35
35	1	35	36
36	1	36	37
37	1	37	38
38	1	38	39
39	1	39	40
40	1	40	41
41	1	41	42
42	1	41	82
43	1	41	122
44	1	42	43
45	1	43	44
46	1	44	45
47	1	45	46
48	1	46	47
49	1	47	48
50	1	48	49
51	1	49	50
52	1	50	51
53	1	51	52
54	1	52	53
55	1	53	54
56	1	54	55
57	1	55	56
58	1	56	57
59	1	57	58
60	1	58	59
61	1	59	60
62	1	60	61
63	1	61	62
64	1	62	63
65	1	63	64
66	1	64	65
67	1	65	66
68	1	66	67
69	1	67	68
70	1	68	69
71	1	69	70
72	1	70	71
73	1	71	72
74	1	72	73
75	1	73	74
76	1	74	75
77	1	75	76
78	1	76	77
79	1	77	78
80	1	78	79
81	1	79	80
82	1	80	81
83	1	82	83
84	1	83	84
85	1	84	85
86	1	85	86
87	1	86	87
88	1	87	88
89	1	88	89
90	1	89	90
91	1	90	91
92	1	91	92
93	1	92	93
94	1	93	94
95	1	94	95
96	1	95	96
97	1	96	97
98	1	97	98
99	1	98	99
100	1	99	100
101	1	100	101
102	1	101	102
103	1	102	103
104	1	103	104
105	1	104	105
106	1	105	106
107	1	106	107
108	1	107	108
109	1	108	109
110	1	109	110
111	1	110	111
112	1	111	112
113	1	112	113
114	1	113	114
115	1	114	115
116	1	115	116
117	1	116	117
118	1	117	118
119	1	118	119
120	1	119	120
121	1	120	121
122	1	122	123
123	1	123	124
124	1	124	125
125	1	125	126
126	1	126	127
127	1	127	128
128	1	128	129
129	1	129	130
130	1	130	131
131	1	131	132
132	1	132	133
133	1	133	134
134	1	134	135
135	1	135	136
136	1	136	137
137	1	137	138
138	1	138	139
139	1	139	140
140	1	140	141
141	1	141	142
142	1	142	143
143	1	143	144
144	1	144	145
145	1	145	146
146	1	146	147
147	1	147	148
148	1	148	149
149	1	149	150
150	1	150	151
151	1	151	152
152	1	152	153
153	1	153	154
154	1	154	155
155	1	155	156
156	1	156	157
157	1	157	158
158	1	158	159
159	1	159	160
160	1	160	161
161	1	161	162
162	1	161	202
163	1	161	242
164	1	162	163
165	1	163	164
166	1	164	165
167	1	165	166
168	1	166	167
169	1	167	168
170	1	168	169
171	1	169	170
172	1	170	171
173	1	171	172
174	1	172	173
175	1	173	174
176	1	174	175
177	1	175	176
178	1	176	177
179	1	177	178
180	1	178	179
181	1	179	180
182	1	180	181
183	1	181	182
184	1	182	183
185	1	183	184
186	1	184	185
187	1	185	186
188	1	186	187
189	1	187	188
190	1	188	189
191	1	189	190
192	1	190	191
193	1	191	192
194	1	192	193
195	1	193	194
196	1	194	195
197	1	195	196
198	1	196	197
199	1	197	198
200	1	198	199
201	1	199	200