bb200nuc3bl50bn4d30tot500

501 atoms
500 bonds
508 angles

1 atom types
1 bond types
1 angle types

-1000 1000 xlo xhi
-1000 1000 ylo yhi
-1000 1000 zlo zhi

Masses

1 1

Atoms

1	1	1	0.0	0.0	0.0	0	0	0
2	1	1	0.0	0.0	1.0	0	0	0
3	1	1	0.0	-0.49999999999999994	1.8660254037844388	0	0	0
4	1	1	0.0	0.0	2.7320508075688776	0	0	0
5	1	1	0.0	-0.49999999999999994	3.5980762113533165	0	0	0
6	1	1	0.0	0.0	4.464101615137755	0	0	0
7	1	1	0.0	-0.49999999999999994	5.330127018922194	0	0	0
8	1	1	0.0	0.0	6.196152422706632	0	0	0
9	1	1	0.0	-0.49999999999999994	7.06217782649107	0	0	0
10	1	1	0.0	0.0	7.928203230275509	0	0	0
11	1	1	0.0	-0.49999999999999994	8.794228634059948	0	0	0
12	1	1	0.0	0.0	9.660254037844387	0	0	0
13	1	1	0.0	-0.49999999999999994	10.526279441628827	0	0	0
14	1	1	0.0	0.0	11.392304845413266	0	0	0
15	1	1	0.0	-0.49999999999999994	12.258330249197705	0	0	0
16	1	1	0.0	0.0	13.124355652982144	0	0	0
17	1	1	0.0	-0.49999999999999994	13.990381056766584	0	0	0
18	1	1	0.0	0.0	14.856406460551023	0	0	0
19	1	1	0.0	-0.49999999999999994	15.722431864335462	0	0	0
20	1	1	0.0	0.0	16.5884572681199	0	0	0
21	1	1	0.0	-0.49999999999999994	17.454482671904337	0	0	0
22	1	1	0.0	0.0	18.320508075688775	0	0	0
23	1	1	0.0	-0.49999999999999994	19.186533479473212	0	0	0
24	1	1	0.0	0.0	20.05255888325765	0	0	0
25	1	1	0.0	-0.49999999999999994	20.918584287042087	0	0	0
26	1	1	0.0	0.0	21.784609690826525	0	0	0
27	1	1	0.0	-0.49999999999999994	22.650635094610962	0	0	0
28	1	1	0.0	0.0	23.5166604983954	0	0	0
29	1	1	0.0	-0.49999999999999994	24.382685902179837	0	0	0
30	1	1	0.0	0.0	25.248711305964274	0	0	0
31	1	1	0.0	-0.49999999999999994	26.114736709748712	0	0	0
32	1	1	0.0	0.0	26.98076211353315	0	0	0
33	1	1	0.0	-0.49999999999999994	27.846787517317587	0	0	0
34	1	1	0.0	0.0	28.712812921102024	0	0	0
35	1	1	0.0	-0.49999999999999994	29.578838324886462	0	0	0
36	1	1	0.0	0.0	30.4448637286709	0	0	0
37	1	1	0.0	-0.49999999999999994	31.310889132455337	0	0	0
38	1	1	0.0	0.0	32.17691453623978	0	0	0
39	1	1	0.0	-0.49999999999999994	33.04293994002422	0	0	0
40	1	1	0.0	0.0	33.90896534380866	0	0	0
41	1	1	0.0	-0.49999999999999994	34.7749907475931	0	0	0
42	1	1	0.0	0.0	35.64101615137754	0	0	0
43	1	1	0.0	-0.49999999999999994	36.50704155516198	0	0	0
44	1	1	0.0	0.0	37.373066958946424	0	0	0
45	1	1	0.0	-0.49999999999999994	38.239092362730865	0	0	0
46	1	1	0.0	0.0	39.105117766515306	0	0	0
47	1	1	0.0	-0.49999999999999994	39.97114317029975	0	0	0
48	1	1	0.0	0.0	40.83716857408419	0	0	0
49	1	1	0.0	-0.49999999999999994	41.70319397786863	0	0	0
50	1	1	0.0	0.0	42.56921938165307	0	0	0
51	1	1	0.0	-0.49999999999999994	43.43524478543751	0	0	0
52	1	1	0.42077381605108377	0.06360446379750079	44.146088934399394	0	0	0
53	1	1	0.8415476321021667	0.1962781726515013	45.043500257430665	0	0	0
54	1	1	1.2623214481532494	1.039796030467384	45.37730711666443	0	0	0
55	1	1	1.6830952642043322	1.1724697393213843	46.274718439695704	0	0	0
56	1	1	2.103869080255415	2.0159875971372667	46.60852529892947	0	0	0
57	1	1	2.524642896306498	2.148661305991267	47.50593662196074	0	0	0
58	1	1	2.9454167123575807	2.9921791638071498	47.83974348119451	0	0	0
59	1	1	3.3661905284086635	3.12485287266115	48.73715480422578	0	0	0
60	1	1	3.7869643444597463	3.968370730477033	49.07096166345955	0	0	0
61	1	1	4.2077381605108295	4.101044439331034	49.96837298649082	0	0	0
62	1	1	4.628511976561913	4.944562297146916	50.30217984572459	0	0	0
63	1	1	5.049285792612996	5.077236006000917	51.19959116875586	0	0	0
64	1	1	5.470059608664079	5.9207538638168	51.53339802798963	0	0	0
65	1	1	5.890833424715162	6.053427572670801	52.4308093510209	0	0	0
66	1	1	6.311607240766246	6.896945430486683	52.764616210254665	0	0	0
67	1	1	6.732381056817329	7.029619139340684	53.662027533285936	0	0	0
68	1	1	7.153154872868412	7.873136997156567	53.995834392519704	0	0	0
69	1	1	7.573928688919495	8.005810706010568	54.893245715550975	0	0	0
70	1	1	7.994702504970578	8.84932856382645	55.22705257478474	0	0	0
71	1	1	8.41547632102166	8.98200227268045	56.124463897816014	0	0	0
72	1	1	8.836250137072744	9.825520130496333	56.45827075704978	0	0	0
73	1	1	9.257023953123827	9.958193839350333	57.35568208008105	0	0	0
74	1	1	9.67779776917491	10.801711697166215	57.68948893931482	0	0	0
75	1	1	10.098571585225994	10.934385406020215	58.58690026234609	0	0	0
76	1	1	10.519345401277077	11.777903263836098	58.92070712157986	0	0	0
77	1	1	10.94011921732816	11.910576972690098	59.81811844461113	0	0	0
78	1	1	11.360893033379243	12.75409483050598	60.1519253038449	0	0	0
79	1	1	11.781666849430326	12.88676853935998	61.04933662687617	0	0	0
80	1	1	12.20244066548141	13.730286397175863	61.38314348610994	0	0	0
81	1	1	12.623214481532493	13.862960106029863	62.28055480914121	0	0	0
82	1	1	13.043988297583576	14.706477963845746	62.614361668374976	0	0	0
83	1	1	13.46476211363466	14.839151672699746	63.51177299140625	0	0	0
84	1	1	13.885535929685743	15.682669530515629	63.845579850640014	0	0	0
85	1	1	14.306309745736826	15.815343239369628	64.74299117367129	0	0	0
86	1	1	14.727083561787909	16.65886109718551	65.07679803290506	0	0	0
87	1	1	15.147857377838992	16.79153480603951	65.97420935593632	0	0	0
88	1	1	15.568631193890075	17.635052663855394	66.3080162151701	0	0	0
89	1	1	15.989405009941159	17.767726372709394	67.20542753820136	0	0	0
90	1	1	16.41017882599224	18.611244230525276	67.53923439743514	0	0	0
91	1	1	16.83095264204332	18.743917939379276	68.4366457204664	0	0	0
92	1	1	17.251726458094403	19.58743579719516	68.77045257970018	0	0	0
93	1	1	17.672500274145484	19.72010950604916	69.66786390273144	0	0	0
94	1	1	18.093274090196566	20.56362736386504	70.00167076196522	0	0	0
95	1	1	18.514047906247647	20.69630107271904	70.89908208499648	0	0	0
96	1	1	18.93482172229873	21.539818930534924	71.23288894423025	0	0	0
97	1	1	19.35559553834981	21.672492639388924	72.13030026726152	0	0	0
98	1	1	19.77636935440089	22.516010497204807	72.46410712649529	0	0	0
99	1	1	20.197143170451973	22.648684206058807	73.36151844952656	0	0	0
100	1	1	20.617916986503054	23.49220206387469	73.69532530876033	0	0	0
101	1	1	21.038690802554136	23.62487577272869	74.5927366317916	0	0	0
102	1	1	0.5201209853888404	-1.3477377383623936	43.3312501340637	0	0	0
103	1	1	1.0402419707776798	-2.0299028298440867	42.81731925493508	0	0	0
104	1	1	1.560362956166519	-2.816062572699588	43.151126114168854	0	0	0
105	1	1	2.080483941555358	-3.498227664181281	42.63719523504023	0	0	0
106	1	1	2.6006049269441975	-4.284387407036782	42.971002094274006	0	0	0
107	1	1	3.120725912333037	-4.966552498518475	42.45707121514538	0	0	0
108	1	1	3.640846897721876	-5.752712241373976	42.79087807437916	0	0	0
109	1	1	4.1609678831107155	-6.4348773328556685	42.276947195250536	0	0	0
110	1	1	4.681088868499555	-7.22103707571117	42.61075405448431	0	0	0
111	1	1	5.201209853888394	-7.9032021671928625	42.09682317535569	0	0	0
112	1	1	5.7213308392772335	-8.689361910048364	42.43063003458946	0	0	0
113	1	1	6.241451824666073	-9.371527001530056	41.91669915546084	0	0	0
114	1	1	6.761572810054912	-10.157686744385558	42.250506014694615	0	0	0
115	1	1	7.2816937954437515	-10.83985183586725	41.73657513556599	0	0	0
116	1	1	7.801814780832591	-11.626011578722752	42.07038199479977	0	0	0
117	1	1	8.32193576622143	-12.308176670204444	41.556451115671145	0	0	0
118	1	1	8.842056751610269	-13.094336413059946	41.89025797490492	0	0	0
119	1	1	9.362177736999108	-13.776501504541638	41.3763270957763	0	0	0
120	1	1	9.882298722387947	-14.56266124739714	41.71013395501007	0	0	0
121	1	1	10.402419707776787	-15.244826338878832	41.19620307588145	0	0	0
122	1	1	10.922540693165626	-16.030986081734333	41.530009935115224	0	0	0
123	1	1	11.442661678554465	-16.713151173216026	41.0160790559866	0	0	0
124	1	1	11.962782663943305	-17.499310916071526	41.349885915220376	0	0	0
125	1	1	12.482903649332144	-18.18147600755322	40.835955036091754	0	0	0
126	1	1	13.003024634720983	-18.967635750408718	41.16976189532553	0	0	0
127	1	1	13.523145620109823	-19.64980084189041	40.655831016196906	0	0	0
128	1	1	14.043266605498662	-20.43596058474591	40.98963787543068	0	0	0
129	1	1	14.563387590887501	-21.118125676227603	40.47570699630206	0	0	0
130	1	1	15.08350857627634	-21.904285419083102	40.80951385553583	0	0	0
131	1	1	15.60362956166518	-22.586450510564795	40.29558297640721	0	0	0
132	1	1	16.12375054705402	-23.372610253420294	40.629389835640985	0	0	0
133	1	1	16.64387153244286	-24.054775344901987	40.11545895651236	0	0	0
134	1	1	17.163992517831698	-24.840935087757487	40.44926581574614	0	0	0
135	1	1	17.684113503220537	-25.52310017923918	39.935334936617515	0	0	0
136	1	1	18.204234488609377	-26.30925992209468	40.26914179585129	0	0	0
137	1	1	18.724355473998216	-26.99142501357637	39.75521091672267	0	0	0
138	1	1	19.244476459387055	-27.77758475643187	40.08901777595644	0	0	0
139	1	1	19.764597444775895	-28.459749847913564	39.57508689682782	0	0	0
140	1	1	20.284718430164734	-29.245909590769063	39.908893756061595	0	0	0
141	1	1	20.804839415553573	-29.928074682250756	39.39496287693297	0	0	0
142	1	1	21.324960400942413	-30.714234425106255	39.72876973616675	0	0	0
143	1	1	21.845081386331252	-31.396399516587948	39.214838857038124	0	0	0
144	1	1	22.36520237172009	-32.18255925944345	39.5486457162719	0	0	0
145	1	1	22.88532335710893	-32.864724350925144	39.03471483714328	0	0	0
146	1	1	23.40544434249777	-33.65088409378065	39.36852169637705	0	0	0
147	1	1	23.92556532788661	-34.33304918526234	38.85459081724843	0	0	0
148	1	1	24.44568631327545	-35.11920892811784	39.188397676482204	0	0	0
149	1	1	24.965807298664288	-35.801374019599535	38.67446679735358	0	0	0
150	1	1	25.485928284053127	-36.58753376245504	39.008273656587356	0	0	0
151	1	1	26.006049269441966	-37.26969885393673	38.49434277745873	0	0	0
152	1	1	-0.9408948014399279	-0.7165770142857586	43.69565094801127	0	0	0
153	1	1	-1.881789602879854	-1.0343412918198878	43.812880792959284	0	0	0
154	1	1	-2.82268440431978	-1.0916994067802623	44.14668765219305	0	0	0
155	1	1	-3.763579205759706	-1.4094636843143915	44.263917497141065	0	0	0
156	1	1	-4.704474007199632	-1.466821799274766	44.59772435637483	0	0	0
157	1	1	-5.645368808639558	-1.7845860768088952	44.71495420132285	0	0	0
158	1	1	-6.5862636100794845	-1.8419441917692698	45.048761060556615	0	0	0
159	1	1	-7.527158411519411	-2.159708469303399	45.16599090550463	0	0	0
160	1	1	-8.468053212959337	-2.217066584263774	45.499797764738396	0	0	0
161	1	1	-9.408948014399263	-2.534830861797903	45.61702760968641	0	0	0
162	1	1	-10.349842815839189	-2.592188976758278	45.95083446892018	0	0	0
163	1	1	-11.290737617279115	-2.9099532542924074	46.06806431386819	0	0	0
164	1	1	-12.231632418719041	-2.967311369252782	46.40187117310196	0	0	0
165	1	1	-13.172527220158967	-3.2850756467869116	46.51910101804997	0	0	0
166	1	1	-14.113422021598893	-3.3424337617472863	46.85290787728374	0	0	0
167	1	1	-15.05431682303882	-3.6601980392814157	46.970137722231755	0	0	0
168	1	1	-15.995211624478745	-3.7175561542417905	47.30394458146552	0	0	0
169	1	1	-16.93610642591867	-4.0353204317759195	47.421174426413536	0	0	0
170	1	1	-17.877001227358594	-4.092678546736294	47.754981285647304	0	0	0
171	1	1	-18.81789602879852	-4.410442824270423	47.87221113059532	0	0	0
172	1	1	-19.758790830238443	-4.467800939230798	48.206017989829085	0	0	0
173	1	1	-20.699685631678367	-4.785565216764927	48.3232478347771	0	0	0
174	1	1	-21.64058043311829	-4.842923331725301	48.65705469401087	0	0	0
175	1	1	-22.581475234558216	-5.160687609259431	48.77428453895888	0	0	0
176	1	1	-23.52237003599814	-5.218045724219805	49.10809139819265	0	0	0
177	1	1	-24.463264837438064	-5.5358100017539345	49.22532124314066	0	0	0
178	1	1	-25.40415963887799	-5.593168116714309	49.55912810237443	0	0	0
179	1	1	-26.345054440317913	-5.910932394248438	49.676357947322444	0	0	0
180	1	1	-27.285949241757837	-5.9682905092088125	50.01016480655621	0	0	0
181	1	1	-28.22684404319776	-6.286054786742942	50.127394651504225	0	0	0
182	1	1	-29.167738844637686	-6.343412901703316	50.46120151073799	0	0	0
183	1	1	-30.10863364607761	-6.661177179237446	50.57843135568601	0	0	0
184	1	1	-31.049528447517535	-6.71853529419782	50.912238214919775	0	0	0
185	1	1	-31.99042324895746	-7.036299571731949	51.02946805986779	0	0	0
186	1	1	-32.93131805039739	-7.093657686692324	51.363274919101556	0	0	0
187	1	1	-33.87221285183731	-7.411421964226453	51.48050476404957	0	0	0
188	1	1	-34.813107653277235	-7.4687800791868275	51.81431162328334	0	0	0
189	1	1	-35.75400245471716	-7.786544356720957	51.93154146823135	0	0	0
190	1	1	-36.694897256157084	-7.843902471681331	52.26534832746512	0	0	0
191	1	1	-37.63579205759701	-8.16166674921546	52.38257817241313	0	0	0
192	1	1	-38.57668685903693	-8.219024864175834	52.7163850316469	0	0	0
193	1	1	-39.51758166047686	-8.536789141709964	52.833614876594915	0	0	0
194	1	1	-40.45847646191678	-8.594147256670338	53.16742173582868	0	0	0
195	1	1	-41.399371263356706	-8.911911534204467	53.284651580776696	0	0	0
196	1	1	-42.34026606479663	-8.969269649164842	53.618458440010464	0	0	0
197	1	1	-43.281160866236554	-9.287033926698971	53.73568828495848	0	0	0
198	1	1	-44.22205566767648	-9.344392041659345	54.069495144192246	0	0	0
199	1	1	-45.1629504691164	-9.662156319193475	54.18672498914026	0	0	0
200	1	1	-46.10384527055633	-9.719514434153849	54.52053184837403	0	0	0
201	1	1	-47.04474007199625	-10.037278711687978	54.63776169332204	0	0	0
202	1	1	-47.43384492164829	-10.264937211036983	53.74514250035596	0	0	0
203	1	1	-47.82294977130032	-10.015785658377622	52.85828235366726	0	0	0
204	1	1	-48.21205462095236	-10.659253298684344	52.19908070632757	0	0	0
205	1	1	-48.601159470604394	-10.410101746024983	51.312220559638874	0	0	0
206	1	1	-48.99026432025643	-11.053569386331706	50.65301891229918	0	0	0
207	1	1	-49.379369169908465	-10.804417833672344	49.766158765610484	0	0	0
208	1	1	-49.7684740195605	-11.447885473979067	49.10695711827079	0	0	0
209	1	1	-50.157578869212536	-11.198733921319706	48.220096971582095	0	0	0
210	1	1	-50.54668371886457	-11.842201561626428	47.5608953242424	0	0	0
211	1	1	-50.93578856851661	-11.593050008967067	46.674035177553705	0	0	0
212	1	1	-51.32489341816864	-12.23651764927379	46.01483353021401	0	0	0
213	1	1	-51.71399826782068	-11.987366096614428	45.127973383525315	0	0	0
214	1	1	-52.10310311747271	-12.63083373692115	44.46877173618562	0	0	0
215	1	1	-52.49220796712475	-12.38168218426179	43.581911589496926	0	0	0
216	1	1	-52.881312816776784	-13.025149824568512	42.92270994215723	0	0	0
217	1	1	-53.27041766642882	-12.77599827190915	42.035849795468536	0	0	0
218	1	1	-53.659522516080855	-13.419465912215873	41.376648148128844	0	0	0
219	1	1	-54.04862736573289	-13.170314359556512	40.48978800144015	0	0	0
220	1	1	-54.437732215384926	-13.813781999863235	39.830586354100454	0	0	0
221	1	1	-54.82683706503696	-13.564630447203873	38.94372620741176	0	0	0
222	1	1	-55.215941914689	-14.208098087510596	38.284524560072065	0	0	0
223	1	1	-55.60504676434103	-13.958946534851234	37.39766441338337	0	0	0
224	1	1	-55.99415161399307	-14.602414175157957	36.738462766043675	0	0	0
225	1	1	-56.383256463645104	-14.353262622498596	35.85160261935498	0	0	0
226	1	1	-56.77236131329714	-14.996730262805318	35.192400972015285	0	0	0
227	1	1	-57.161466162949175	-14.747578710145957	34.30554082532659	0	0	0
228	1	1	-57.55057101260121	-15.39104635045268	33.646339177986896	0	0	0
229	1	1	-57.939675862253246	-15.141894797793318	32.7594790312982	0	0	0
230	1	1	-58.32878071190528	-15.78536243810004	32.100277383958506	0	0	0
231	1	1	-58.71788556155732	-15.53621088544068	31.21341723726981	0	0	0
232	1	1	-59.10699041120935	-16.179678525747402	30.554215589930116	0	0	0
233	1	1	-59.49609526086139	-15.93052697308804	29.66735544324142	0	0	0
234	1	1	-59.88520011051342	-16.573994613394763	29.008153795901727	0	0	0
235	1	1	-60.27430496016546	-16.324843060735404	28.12129364921303	0	0	0
236	1	1	-60.663409809817495	-16.968310701042128	27.462092001873337	0	0	0
237	1	1	-61.05251465946953	-16.719159148382765	26.57523185518464	0	0	0
238	1	1	-61.441619509121566	-17.36262678868949	25.916030207844948	0	0	0
239	1	1	-61.8307243587736	-17.113475236030126	25.02917006115625	0	0	0
240	1	1	-62.21982920842564	-17.75694287633685	24.369968413816558	0	0	0
241	1	1	-62.60893405807767	-17.507791323677488	23.48310826712786	0	0	0
242	1	1	-62.99803890772971	-18.151258963984212	22.82390661978817	0	0	0
243	1	1	-63.38714375738174	-17.90210741132485	21.93704647309947	0	0	0
244	1	1	-63.77624860703378	-18.545575051631573	21.27784482575978	0	0	0
245	1	1	-64.16535345668582	-18.29642349897221	20.39098467907108	0	0	0
246	1	1	-64.55445830633786	-18.939891139278934	19.73178303173139	0	0	0
247	1	1	-64.9435631559899	-18.69073958661957	18.844922885042692	0	0	0
248	1	1	-65.33266800564195	-19.334207226926296	18.185721237703	0	0	0
249	1	1	-65.72177285529399	-19.085055674266933	17.298861091014302	0	0	0
250	1	1	-66.11087770494603	-19.728523314573657	16.63965944367461	0	0	0
251	1	1	-66.49998255459808	-19.479371761914294	15.752799296985915	0	0	0
252	1	1	-47.59005776638628	-9.315713062831541	55.06434301801351	0	0	0
253	1	1	-48.13537546077631	-8.904109542769401	55.79455610640456	0	0	0
254	1	1	-48.68069315516634	-8.065924698015788	55.803203545939176	0	0	0
255	1	1	-49.22601084955637	-7.654321177953647	56.53341663433023	0	0	0
256	1	1	-49.771328543946396	-6.816136333200033	56.54206407386484	0	0	0
257	1	1	-50.316646238336425	-6.404532813137892	57.2722771622559	0	0	0
258	1	1	-50.861963932726454	-5.566347968384278	57.28092460179051	0	0	0
259	1	1	-51.40728162711648	-5.154744448322137	58.01113769018156	0	0	0
260	1	1	-51.95259932150651	-4.316559603568523	58.019785129716176	0	0	0
261	1	1	-52.49791701589654	-3.9049560835063817	58.74999821810723	0	0	0
262	1	1	-53.04323471028657	-3.066771238752768	58.75864565764184	0	0	0
263	1	1	-53.5885524046766	-2.6551677186906266	59.488858746032896	0	0	0
264	1	1	-54.13387009906663	-1.8169828739370129	59.49750618556751	0	0	0
265	1	1	-54.679187793456656	-1.4053793538748718	60.22771927395856	0	0	0
266	1	1	-55.224505487846685	-0.567194509121258	60.236366713493176	0	0	0
267	1	1	-55.76982318223671	-0.1555909890591169	60.96657980188423	0	0	0
268	1	1	-56.31514087662674	0.6825938556944968	60.97522724141884	0	0	0
269	1	1	-56.86045857101677	1.094197375756638	61.705440329809896	0	0	0
270	1	1	-57.4057762654068	1.9323822205102517	61.71408776934451	0	0	0
271	1	1	-57.95109395979683	2.3439857405723927	62.44430085773556	0	0	0
272	1	1	-58.49641165418686	3.1821705853260065	62.452948297270176	0	0	0
273	1	1	-59.04172934857689	3.593774105388148	63.18316138566123	0	0	0
274	1	1	-59.587047042966915	4.4319589501417616	63.19180882519584	0	0	0
275	1	1	-60.132364737356944	4.843562470203903	63.922021913586896	0	0	0
276	1	1	-60.67768243174697	5.681747314957517	63.93066935312151	0	0	0
277	1	1	-61.223000126137	6.093350835019658	64.66088244151256	0	0	0
278	1	1	-61.76831782052703	6.931535679773272	64.66952988104717	0	0	0
279	1	1	-62.31363551491706	7.343139199835413	65.39974296943822	0	0	0
280	1	1	-62.85895320930709	8.181324044589026	65.40839040897283	0	0	0
281	1	1	-63.40427090369712	8.592927564651166	66.13860349736389	0	0	0
282	1	1	-63.949588598087146	9.43111240940478	66.1472509368985	0	0	0
283	1	1	-64.49490629247717	9.84271592946692	66.87746402528956	0	0	0
284	1	1	-65.04022398686719	10.680900774220532	66.88611146482417	0	0	0
285	1	1	-65.58554168125721	11.092504294282673	67.61632455321522	0	0	0
286	1	1	-66.13085937564723	11.930689139036286	67.62497199274983	0	0	0
287	1	1	-66.67617707003726	12.342292659098426	68.35518508114089	0	0	0
288	1	1	-67.22149476442728	13.180477503852039	68.3638325206755	0	0	0
289	1	1	-67.7668124588173	13.59208102391418	69.09404560906655	0	0	0
290	1	1	-68.31213015320732	14.430265868667792	69.10269304860117	0	0	0
291	1	1	-68.85744784759734	14.841869388729933	69.83290613699222	0	0	0
292	1	1	-69.40276554198736	15.680054233483546	69.84155357652683	0	0	0
293	1	1	-69.94808323637739	16.091657753545686	70.57176666491789	0	0	0
294	1	1	-70.49340093076741	16.9298425982993	70.5804141044525	0	0	0
295	1	1	-71.03871862515743	17.34144611836144	71.31062719284355	0	0	0
296	1	1	-71.58403631954745	18.179630963115052	71.31927463237817	0	0	0
297	1	1	-72.12935401393747	18.591234483177193	72.04948772076922	0	0	0
298	1	1	-72.6746717083275	19.429419327930805	72.05813516030383	0	0	0
299	1	1	-73.21998940271752	19.841022847992946	72.78834824869489	0	0	0
300	1	1	-73.76530709710754	20.67920769274656	72.7969956882295	0	0	0
301	1	1	-74.31062479149756	21.0908112128087	73.52720877662055	0	0	0
302	1	1	-47.05254894356832	-10.849401547576475	55.22119594064833	0	0	0
303	1	1	-47.060357815140385	-11.84443767811252	55.3204034023265	0	0	0
304	1	1	-47.06816668671245	-12.256039561322275	56.23173369989317	0	0	0
305	1	1	-47.07597555828452	-13.25107569185832	56.33094116157134	0	0	0
306	1	1	-47.083784429856586	-13.662677575068075	57.24227145913801	0	0	0
307	1	1	-47.09159330142865	-14.65771370560412	57.34147892081618	0	0	0
308	1	1	-47.09940217300072	-15.069315588813875	58.25280921838285	0	0	0
309	1	1	-47.107211044572786	-16.064351719349922	58.35201668006102	0	0	0
310	1	1	-47.11501991614485	-16.475953602559677	59.26334697762769	0	0	0
311	1	1	-47.12282878771692	-17.470989733095724	59.36255443930586	0	0	0
312	1	1	-47.130637659288986	-17.88259161630548	60.27388473687253	0	0	0
313	1	1	-47.13844653086105	-18.877627746841526	60.3730921985507	0	0	0
314	1	1	-47.14625540243312	-19.28922963005128	61.28442249611737	0	0	0
315	1	1	-47.15406427400519	-20.284265760587328	61.38362995779554	0	0	0
316	1	1	-47.16187314557725	-20.695867643797083	62.29496025536221	0	0	0
317	1	1	-47.16968201714932	-21.69090377433313	62.39416771704038	0	0	0
318	1	1	-47.17749088872139	-22.102505657542885	63.30549801460705	0	0	0
319	1	1	-47.185299760293454	-23.09754178807893	63.40470547628522	0	0	0
320	1	1	-47.19310863186552	-23.509143671288687	64.3160357738519	0	0	0
321	1	1	-47.20091750343759	-24.504179801824733	64.41524323553007	0	0	0
322	1	1	-47.208726375009654	-24.91578168503449	65.32657353309673	0	0	0
323	1	1	-47.21653524658172	-25.910817815570535	65.42578099477491	0	0	0
324	1	1	-47.22434411815379	-26.32241969878029	66.33711129234158	0	0	0
325	1	1	-47.232152989725854	-27.317455829316337	66.43631875401975	0	0	0
326	1	1	-47.23996186129792	-27.729057712526092	67.34764905158642	0	0	0
327	1	1	-47.24777073286999	-28.72409384306214	67.44685651326459	0	0	0
328	1	1	-47.255579604442055	-29.135695726271894	68.35818681083126	0	0	0
329	1	1	-47.26338847601412	-30.13073185680794	68.45739427250943	0	0	0
330	1	1	-47.27119734758619	-30.542333740017696	69.3687245700761	0	0	0
331	1	1	-47.279006219158255	-31.537369870553743	69.46793203175427	0	0	0
332	1	1	-47.28681509073032	-31.948971753763498	70.37926232932094	0	0	0
333	1	1	-47.29462396230239	-32.944007884299545	70.47846979099911	0	0	0
334	1	1	-47.302432833874455	-33.3556097675093	71.38980008856578	0	0	0
335	1	1	-47.31024170544652	-34.35064589804534	71.48900755024395	0	0	0
336	1	1	-47.31805057701859	-34.7622477812551	72.40033784781062	0	0	0
337	1	1	-47.325859448590656	-35.75728391179114	72.4995453094888	0	0	0
338	1	1	-47.33366832016272	-36.1688857950009	73.41087560705546	0	0	0
339	1	1	-47.34147719173479	-37.16392192553694	73.51008306873364	0	0	0
340	1	1	-47.349286063306856	-37.575523808746695	74.4214133663003	0	0	0
341	1	1	-47.35709493487892	-38.57055993928274	74.52062082797848	0	0	0
342	1	1	-47.36490380645099	-38.98216182249249	75.43195112554514	0	0	0
343	1	1	-47.372712678023056	-39.977197953028536	75.53115858722332	0	0	0
344	1	1	-47.38052154959512	-40.38879983623829	76.44248888478998	0	0	0
345	1	1	-47.38833042116719	-41.383835966774335	76.54169634646816	0	0	0
346	1	1	-47.39613929273926	-41.79543784998409	77.45302664403482	0	0	0
347	1	1	-47.40394816431132	-42.79047398052013	77.552234105713	0	0	0
348	1	1	-47.41175703588339	-43.20207586372989	78.46356440327966	0	0	0
349	1	1	-47.41956590745546	-44.19711199426593	78.56277186495784	0	0	0
350	1	1	-47.427374779027524	-44.60871387747569	79.4741021625245	0	0	0
351	1	1	-47.43518365059959	-45.60375000801173	79.57330962420268	0	0	0
352	1	1	-47.83413572127337	-46.017671053895064	78.75507578654994	0	0	0
353	1	1	-48.233087791947156	-45.967020275964686	77.83950397396495	0	0	0
354	1	1	-48.63203986262094	-46.734603335687055	77.33785320726331	0	0	0
355	1	1	-49.03099193329473	-46.683952557756676	76.42228139467832	0	0	0
356	1	1	-49.429944003968515	-47.451535617479045	75.92063062797668	0	0	0
357	1	1	-49.8288960746423	-47.40088483954867	75.00505881539169	0	0	0
358	1	1	-50.22784814531609	-48.168467899271036	74.50340804869005	0	0	0
359	1	1	-50.626800215989874	-48.11781712134066	73.58783623610506	0	0	0
360	1	1	-51.02575228666366	-48.88540018106303	73.08618546940342	0	0	0
361	1	1	-51.42470435733745	-48.83474940313265	72.17061365681843	0	0	0
362	1	1	-51.82365642801123	-49.60233246285502	71.66896289011679	0	0	0
363	1	1	-52.22260849868502	-49.55168168492464	70.7533910775318	0	0	0
364	1	1	-52.621560569358806	-50.31926474464701	70.25174031083016	0	0	0
365	1	1	-53.02051264003259	-50.26861396671663	69.33616849824517	0	0	0
366	1	1	-53.41946471070638	-51.036197026439	68.83451773154353	0	0	0
367	1	1	-53.818416781380165	-50.98554624850862	67.91894591895854	0	0	0
368	1	1	-54.21736885205395	-51.75312930823099	67.4172951522569	0	0	0
369	1	1	-54.61632092272774	-51.70247853030061	66.50172333967191	0	0	0
370	1	1	-55.015272993401524	-52.47006159002298	66.00007257297027	0	0	0
371	1	1	-55.41422506407531	-52.4194108120926	65.08450076038528	0	0	0
372	1	1	-55.8131771347491	-53.18699387181497	64.58284999368364	0	0	0
373	1	1	-56.21212920542288	-53.13634309388459	63.66727818109866	0	0	0
374	1	1	-56.61108127609667	-53.90392615360696	63.165627414397015	0	0	0
375	1	1	-57.010033346770456	-53.85327537567658	62.250055601812036	0	0	0
376	1	1	-57.40898541744424	-54.62085843539895	61.74840483511039	0	0	0
377	1	1	-57.80793748811803	-54.57020765746857	60.83283302252541	0	0	0
378	1	1	-58.206889558791815	-55.33779071719094	60.33118225582377	0	0	0
379	1	1	-58.6058416294656	-55.28713993926056	59.41561044323879	0	0	0
380	1	1	-59.00479370013939	-56.05472299898293	58.91395967653715	0	0	0
381	1	1	-59.403745770813174	-56.00407222105255	57.99838786395217	0	0	0
382	1	1	-59.80269784148696	-56.77165528077492	57.496737097250524	0	0	0
383	1	1	-60.20164991216075	-56.72100450284454	56.581165284665545	0	0	0
384	1	1	-60.60060198283453	-57.48858756256691	56.0795145179639	0	0	0
385	1	1	-60.99955405350832	-57.437936784636534	55.16394270537892	0	0	0
386	1	1	-61.398506124182106	-58.2055198443589	54.66229193867728	0	0	0
387	1	1	-61.79745819485589	-58.154869066428525	53.7467201260923	0	0	0
388	1	1	-62.19641026552968	-58.922452126150894	53.245069359390655	0	0	0
389	1	1	-62.595362336203465	-58.871801348220515	52.329497546805676	0	0	0
390	1	1	-62.99431440687725	-59.639384407942885	51.82784678010403	0	0	0
391	1	1	-63.39326647755104	-59.588733630012506	50.91227496751905	0	0	0
392	1	1	-63.792218548224824	-60.356316689734875	50.41062420081741	0	0	0
393	1	1	-64.19117061889861	-60.305665911804496	49.49505238823243	0	0	0
394	1	1	-64.5901226895724	-61.073248971526866	48.993401621530786	0	0	0
395	1	1	-64.98907476024618	-61.02259819359649	48.07782980894581	0	0	0
396	1	1	-65.38802683091997	-61.790181253318856	47.57617904224416	0	0	0
397	1	1	-65.78697890159376	-61.73953047538848	46.660607229659185	0	0	0
398	1	1	-66.18593097226754	-62.50711353511085	46.15895646295754	0	0	0
399	1	1	-66.58488304294133	-62.45646275718047	45.24338465037256	0	0	0
400	1	1	-66.98383511361511	-63.22404581690284	44.74173388367092	0	0	0
401	1	1	-67.3827871842889	-63.17339503897246	43.82616207108594	0	0	0
402	1	1	-47.98027394923985	-45.855204420115726	80.37308912191546	0	0	0
403	1	1	-48.52536424788011	-46.47286007774786	80.93999127830868	0	0	0
404	1	1	-49.070454546520374	-46.29073623766721	81.7583478468059	0	0	0
405	1	1	-49.615544845160635	-46.908391895299346	82.32525000319913	0	0	0
406	1	1	-50.160635143800896	-46.726268055218696	83.14360657169635	0	0	0
407	1	1	-50.70572544244116	-47.34392371285083	83.71050872808958	0	0	0
408	1	1	-51.25081574108142	-47.16179987277018	84.5288652965868	0	0	0
409	1	1	-51.79590603972168	-47.779455530402316	85.09576745298003	0	0	0
410	1	1	-52.34099633836194	-47.59733169032167	85.91412402147725	0	0	0
411	1	1	-52.8860866370022	-48.2149873479538	86.48102617787048	0	0	0
412	1	1	-53.43117693564246	-48.03286350787315	87.2993827463677	0	0	0
413	1	1	-53.97626723428272	-48.65051916550529	87.86628490276092	0	0	0
414	1	1	-54.521357532922984	-48.46839532542464	88.68464147125815	0	0	0
415	1	1	-55.066447831563245	-49.08605098305677	89.25154362765137	0	0	0
416	1	1	-55.611538130203506	-48.90392714297612	90.0699001961486	0	0	0
417	1	1	-56.15662842884377	-49.52158280060826	90.63680235254182	0	0	0
418	1	1	-56.70171872748403	-49.33945896052761	91.45515892103904	0	0	0
419	1	1	-57.24680902612429	-49.95711461815974	92.02206107743227	0	0	0
420	1	1	-57.79189932476455	-49.77499077807909	92.84041764592949	0	0	0
421	1	1	-58.33698962340481	-50.39264643571123	93.40731980232272	0	0	0
422	1	1	-58.88207992204507	-50.21052259563058	94.22567637081994	0	0	0
423	1	1	-59.42717022068533	-50.82817825326271	94.79257852721317	0	0	0
424	1	1	-59.972260519325594	-50.646054413182064	95.61093509571039	0	0	0
425	1	1	-60.517350817965855	-51.2637100708142	96.17783725210361	0	0	0
426	1	1	-61.06244111660612	-51.08158623073355	96.99619382060084	0	0	0
427	1	1	-61.60753141524638	-51.699241888365684	97.56309597699406	0	0	0
428	1	1	-62.15262171388664	-51.517118048285035	98.38145254549129	0	0	0
429	1	1	-62.6977120125269	-52.13477370591717	98.94835470188451	0	0	0
430	1	1	-63.24280231116716	-51.95264986583652	99.76671127038173	0	0	0
431	1	1	-63.78789260980742	-52.570305523468654	100.33361342677496	0	0	0
432	1	1	-64.33298290844768	-52.388181683388005	101.15196999527218	0	0	0
433	1	1	-64.87807320708794	-53.00583734102014	101.71887215166541	0	0	0
434	1	1	-65.4231635057282	-52.82371350093949	102.53722872016263	0	0	0
435	1	1	-65.96825380436846	-53.441369158571625	103.10413087655586	0	0	0
436	1	1	-66.51334410300872	-53.259245318490976	103.92248744505308	0	0	0
437	1	1	-67.05843440164898	-53.87690097612311	104.4893896014463	0	0	0
438	1	1	-67.60352470028924	-53.69477713604246	105.30774616994353	0	0	0
439	1	1	-68.1486149989295	-54.312432793674596	105.87464832633675	0	0	0
440	1	1	-68.69370529756976	-54.130308953593946	106.69300489483398	0	0	0
441	1	1	-69.23879559621002	-54.74796461122608	107.2599070512272	0	0	0