bb320nuc3bl80bn4d30tot800

801 atoms
800 bonds
808 angles

1 atom types
1 bond types
1 angle types

-1000 1000 xlo xhi
-1000 1000 ylo yhi
-1000 1000 zlo zhi

Masses

1 1

Atoms

1	1	1	0.0	0.0	0.0	0	0	0
2	1	1	0.0	0.0	1.0	0	0	0
3	1	1	0.0	-0.49999999999999994	1.8660254037844388	0	0	0
4	1	1	0.0	0.0	2.7320508075688776	0	0	0
5	1	1	0.0	-0.49999999999999994	3.5980762113533165	0	0	0
6	1	1	0.0	0.0	4.464101615137755	0	0	0
7	1	1	0.0	-0.49999999999999994	5.330127018922194	0	0	0
8	1	1	0.0	0.0	6.196152422706632	0	0	0
9	1	1	0.0	-0.49999999999999994	7.06217782649107	0	0	0
10	1	1	0.0	0.0	7.928203230275509	0	0	0
11	1	1	0.0	-0.49999999999999994	8.794228634059948	0	0	0
12	1	1	0.0	0.0	9.660254037844387	0	0	0
13	1	1	0.0	-0.49999999999999994	10.526279441628827	0	0	0
14	1	1	0.0	0.0	11.392304845413266	0	0	0
15	1	1	0.0	-0.49999999999999994	12.258330249197705	0	0	0
16	1	1	0.0	0.0	13.124355652982144	0	0	0
17	1	1	0.0	-0.49999999999999994	13.990381056766584	0	0	0
18	1	1	0.0	0.0	14.856406460551023	0	0	0
19	1	1	0.0	-0.49999999999999994	15.722431864335462	0	0	0
20	1	1	0.0	0.0	16.5884572681199	0	0	0
21	1	1	0.0	-0.49999999999999994	17.454482671904337	0	0	0
22	1	1	0.0	0.0	18.320508075688775	0	0	0
23	1	1	0.0	-0.49999999999999994	19.186533479473212	0	0	0
24	1	1	0.0	0.0	20.05255888325765	0	0	0
25	1	1	0.0	-0.49999999999999994	20.918584287042087	0	0	0
26	1	1	0.0	0.0	21.784609690826525	0	0	0
27	1	1	0.0	-0.49999999999999994	22.650635094610962	0	0	0
28	1	1	0.0	0.0	23.5166604983954	0	0	0
29	1	1	0.0	-0.49999999999999994	24.382685902179837	0	0	0
30	1	1	0.0	0.0	25.248711305964274	0	0	0
31	1	1	0.0	-0.49999999999999994	26.114736709748712	0	0	0
32	1	1	0.0	0.0	26.98076211353315	0	0	0
33	1	1	0.0	-0.49999999999999994	27.846787517317587	0	0	0
34	1	1	0.0	0.0	28.712812921102024	0	0	0
35	1	1	0.0	-0.49999999999999994	29.578838324886462	0	0	0
36	1	1	0.0	0.0	30.4448637286709	0	0	0
37	1	1	0.0	-0.49999999999999994	31.310889132455337	0	0	0
38	1	1	0.0	0.0	32.17691453623978	0	0	0
39	1	1	0.0	-0.49999999999999994	33.04293994002422	0	0	0
40	1	1	0.0	0.0	33.90896534380866	0	0	0
41	1	1	0.0	-0.49999999999999994	34.7749907475931	0	0	0
42	1	1	0.0	0.0	35.64101615137754	0	0	0
43	1	1	0.0	-0.49999999999999994	36.50704155516198	0	0	0
44	1	1	0.0	0.0	37.373066958946424	0	0	0
45	1	1	0.0	-0.49999999999999994	38.239092362730865	0	0	0
46	1	1	0.0	0.0	39.105117766515306	0	0	0
47	1	1	0.0	-0.49999999999999994	39.97114317029975	0	0	0
48	1	1	0.0	0.0	40.83716857408419	0	0	0
49	1	1	0.0	-0.49999999999999994	41.70319397786863	0	0	0
50	1	1	0.0	0.0	42.56921938165307	0	0	0
51	1	1	0.0	-0.49999999999999994	43.43524478543751	0	0	0
52	1	1	0.0	0.0	44.30127018922195	0	0	0
53	1	1	0.0	-0.49999999999999994	45.16729559300639	0	0	0
54	1	1	0.0	0.0	46.033320996790835	0	0	0
55	1	1	0.0	-0.49999999999999994	46.899346400575276	0	0	0
56	1	1	0.0	0.0	47.76537180435972	0	0	0
57	1	1	0.0	-0.49999999999999994	48.63139720814416	0	0	0
58	1	1	0.0	0.0	49.4974226119286	0	0	0
59	1	1	0.0	-0.49999999999999994	50.36344801571304	0	0	0
60	1	1	0.0	0.0	51.22947341949748	0	0	0
61	1	1	0.0	-0.49999999999999994	52.09549882328192	0	0	0
62	1	1	0.0	0.0	52.96152422706636	0	0	0
63	1	1	0.0	-0.49999999999999994	53.827549630850804	0	0	0
64	1	1	0.0	0.0	54.693575034635245	0	0	0
65	1	1	0.0	-0.49999999999999994	55.559600438419686	0	0	0
66	1	1	0.0	0.0	56.42562584220413	0	0	0
67	1	1	0.0	-0.49999999999999994	57.29165124598857	0	0	0
68	1	1	0.0	0.0	58.15767664977301	0	0	0
69	1	1	0.0	-0.49999999999999994	59.02370205355745	0	0	0
70	1	1	0.0	0.0	59.88972745734189	0	0	0
71	1	1	0.0	-0.49999999999999994	60.75575286112633	0	0	0
72	1	1	0.0	0.0	61.62177826491077	0	0	0
73	1	1	0.0	-0.49999999999999994	62.487803668695214	0	0	0
74	1	1	0.0	0.0	63.353829072479655	0	0	0
75	1	1	0.0	-0.49999999999999994	64.21985447626409	0	0	0
76	1	1	0.0	0.0	65.08587988004852	0	0	0
77	1	1	0.0	-0.49999999999999994	65.95190528383296	0	0	0
78	1	1	0.0	0.0	66.81793068761739	0	0	0
79	1	1	0.0	-0.49999999999999994	67.68395609140183	0	0	0
80	1	1	0.0	0.0	68.54998149518626	0	0	0
81	1	1	0.0	-0.49999999999999994	69.41600689897069	0	0	0
82	1	1	-0.2003548573570109	-1.4646021095057553	69.24454057145859	0	0	0
83	1	1	-0.4007097147140226	-2.214238877125746	68.6137453211866	0	0	0
84	1	1	-0.6010645720710344	-3.1353419722578484	68.94755218042037	0	0	0
85	1	1	-0.8014194294280461	-3.8849787398778393	68.31675693014839	0	0	0
86	1	1	-1.0017742867850579	-4.806081835009941	68.65056378938216	0	0	0
87	1	1	-1.2021291441420696	-5.555718602629932	68.01976853911017	0	0	0
88	1	1	-1.4024840014990814	-6.476821697762034	68.35357539834395	0	0	0
89	1	1	-1.6028388588560931	-7.226458465382025	67.72278014807196	0	0	0
90	1	1	-1.8031937162131049	-8.147561560514127	68.05658700730574	0	0	0
91	1	1	-2.0035485735701166	-8.897198328134118	67.42579175703375	0	0	0
92	1	1	-2.203903430927128	-9.81830142326622	67.75959861626752	0	0	0
93	1	1	-2.4042582882841397	-10.567938190886212	67.12880336599554	0	0	0
94	1	1	-2.604613145641151	-11.489041286018313	67.46261022522931	0	0	0
95	1	1	-2.8049680029981627	-12.238678053638305	66.83181497495733	0	0	0
96	1	1	-3.0053228603551743	-13.159781148770406	67.1656218341911	0	0	0
97	1	1	-3.205677717712186	-13.909417916390398	66.53482658391911	0	0	0
98	1	1	-3.4060325750691973	-14.8305210115225	66.86863344315289	0	0	0
99	1	1	-3.606387432426209	-15.58015777914249	66.2378381928809	0	0	0
100	1	1	-3.8067422897832204	-16.501260874274593	66.57164505211468	0	0	0
101	1	1	-4.007097147140232	-17.250897641894582	65.94084980184269	0	0	0
102	1	1	-4.207452004497244	-18.172000737026686	66.27465666107646	0	0	0
103	1	1	-4.407806861854256	-18.921637504646675	65.64386141080448	0	0	0
104	1	1	-4.608161719211268	-19.84274059977878	65.97766827003825	0	0	0
105	1	1	-4.80851657656828	-20.59237736739877	65.34687301976626	0	0	0
106	1	1	-5.008871433925292	-21.51348046253087	65.68067987900004	0	0	0
107	1	1	-5.209226291282304	-22.26311723015086	65.04988462872805	0	0	0
108	1	1	-5.409581148639316	-23.184220325282965	65.38369148796183	0	0	0
109	1	1	-5.609936005996328	-23.933857092902954	64.75289623768984	0	0	0
110	1	1	-5.81029086335334	-24.854960188035058	65.08670309692361	0	0	0
111	1	1	-6.010645720710352	-25.604596955655047	64.45590784665163	0	0	0
112	1	1	-6.211000578067364	-26.52570005078715	64.7897147058854	0	0	0
113	1	1	-6.411355435424376	-27.27533681840714	64.15891945561341	0	0	0
114	1	1	-6.611710292781388	-28.196439913539244	64.49272631484719	0	0	0
115	1	1	-6.8120651501384	-28.946076681159234	63.8619310645752	0	0	0
116	1	1	-7.012420007495412	-29.867179776291337	64.19573792380898	0	0	0
117	1	1	-7.212774864852424	-30.616816543911327	63.56494267353699	0	0	0
118	1	1	-7.413129722209436	-31.53791963904343	63.89874953277076	0	0	0
119	1	1	-7.613484579566448	-32.28755640666342	63.26795428249877	0	0	0
120	1	1	-7.81383943692346	-33.20865950179552	63.60176114173254	0	0	0
121	1	1	-8.014194294280472	-33.95829626941551	62.97096589146055	0	0	0
122	1	1	-8.214549151637483	-34.879399364547616	63.30477275069432	0	0	0
123	1	1	-8.414904008994494	-35.629036132167606	62.67397750042233	0	0	0
124	1	1	-8.615258866351505	-36.55013922729971	63.0077843596561	0	0	0
125	1	1	-8.815613723708516	-37.2997759949197	62.37698910938411	0	0	0
126	1	1	-9.015968581065527	-38.2208790900518	62.71079596861788	0	0	0
127	1	1	-9.216323438422538	-38.97051585767179	62.08000071834589	0	0	0
128	1	1	-9.41667829577955	-39.891618952803896	62.41380757757966	0	0	0
129	1	1	-9.61703315313656	-40.641255720423885	61.783012327307674	0	0	0
130	1	1	-9.817388010493572	-41.56235881555599	62.11681918654144	0	0	0
131	1	1	-10.017742867850583	-42.31199558317598	61.486023936269454	0	0	0
132	1	1	-10.218097725207594	-43.23309867830808	61.81983079550322	0	0	0
133	1	1	-10.418452582564605	-43.98273544592807	61.189035545231235	0	0	0
134	1	1	-10.618807439921616	-44.903838541060175	61.522842404465	0	0	0
135	1	1	-10.819162297278627	-45.653475308680164	60.892047154193016	0	0	0
136	1	1	-11.019517154635638	-46.57457840381227	61.22585401342678	0	0	0
137	1	1	-11.21987201199265	-47.32421517143226	60.595058763154796	0	0	0
138	1	1	-11.42022686934966	-48.24531826656436	60.928865622388564	0	0	0
139	1	1	-11.620581726706671	-48.99495503418435	60.29807037211658	0	0	0
140	1	1	-11.820936584063682	-49.916058129316454	60.631877231350344	0	0	0
141	1	1	-12.021291441420694	-50.665694896936444	60.00108198107836	0	0	0
142	1	1	-12.221646298777705	-51.58679799206855	60.334888840312125	0	0	0
143	1	1	-12.422001156134716	-52.33643475968854	59.70409359004014	0	0	0
144	1	1	-12.622356013491727	-53.25753785482064	60.037900449273906	0	0	0
145	1	1	-12.822710870848738	-54.00717462244063	59.40710519900192	0	0	0
146	1	1	-13.023065728205749	-54.92827771757273	59.740912058235686	0	0	0
147	1	1	-13.22342058556276	-55.67791448519272	59.1101168079637	0	0	0
148	1	1	-13.423775442919771	-56.599017580324826	59.44392366719747	0	0	0
149	1	1	-13.624130300276782	-57.348654347944816	58.81312841692548	0	0	0
150	1	1	-13.824485157633793	-58.26975744307692	59.14693527615925	0	0	0
151	1	1	-14.024840014990804	-59.01939421069691	58.51614002588726	0	0	0
152	1	1	-14.225194872347815	-59.94049730582901	58.84994688512103	0	0	0
153	1	1	-14.425549729704827	-60.690134073449	58.21915163484904	0	0	0
154	1	1	-14.625904587061838	-61.611237168581106	58.55295849408281	0	0	0
155	1	1	-14.826259444418849	-62.360873936201095	57.92216324381082	0	0	0
156	1	1	-15.02661430177586	-63.2819770313332	58.25597010304459	0	0	0
157	1	1	-15.22696915913287	-64.03161379895319	57.6251748527726	0	0	0
158	1	1	-15.427324016489882	-64.95271689408528	57.95898171200637	0	0	0
159	1	1	-15.627678873846893	-65.70235366170527	57.32818646173438	0	0	0
160	1	1	-15.828033731203904	-66.62345675683737	57.66199332096815	0	0	0
161	1	1	-16.028388588560915	-67.37309352445736	57.03119807069616	0	0	0
162	1	1	-0.6975212512103713	-0.11778794665469805	70.02212409092904	0	0	0
163	1	1	-1.3950425024207456	-0.08984119480422947	70.73814300350811	0	0	0
164	1	1	-2.09256375363112	0.5442227490045937	71.07194986274189	0	0	0
165	1	1	-2.7900850048414942	0.5721695008550622	71.78796877532096	0	0	0
166	1	1	-3.4876062560518686	1.2062334446638854	72.12177563455474	0	0	0
167	1	1	-4.1851275072622425	1.234180196514354	72.83779454713381	0	0	0
168	1	1	-4.882648758472617	1.868244140323177	73.17160140636759	0	0	0
169	1	1	-5.580170009682991	1.8961908921736457	73.88762031894666	0	0	0
170	1	1	-6.2776912608933655	2.530254835982469	74.22142717818043	0	0	0
171	1	1	-6.97521251210374	2.5582015878329374	74.93744609075951	0	0	0
172	1	1	-7.672733763314114	3.1922655316417607	75.27125294999328	0	0	0
173	1	1	-8.370255014524489	3.2202122834922293	75.98727186257236	0	0	0
174	1	1	-9.067776265734862	3.8542762273010522	76.32107872180613	0	0	0
175	1	1	-9.765297516945235	3.882222979151521	77.0370976343852	0	0	0
176	1	1	-10.462818768155609	4.516286922960344	77.37090449361898	0	0	0
177	1	1	-11.160340019365982	4.544233674810813	78.08692340619805	0	0	0
178	1	1	-11.857861270576356	5.178297618619636	78.42073026543183	0	0	0
179	1	1	-12.55538252178673	5.206244370470105	79.1367491780109	0	0	0
180	1	1	-13.252903772997103	5.8403083142789285	79.47055603724468	0	0	0
181	1	1	-13.950425024207476	5.8682550661293975	80.18657494982375	0	0	0
182	1	1	-14.64794627541785	6.502319009938221	80.52038180905753	0	0	0
183	1	1	-15.345467526628223	6.53026576178869	81.2364007216366	0	0	0
184	1	1	-16.0429887778386	7.164329705597513	81.57020758087037	0	0	0
185	1	1	-16.740510029048973	7.192276457447982	82.28622649344945	0	0	0
186	1	1	-17.43803128025935	7.826340401256806	82.62003335268322	0	0	0
187	1	1	-18.135552531469724	7.854287153107275	83.3360522652623	0	0	0
188	1	1	-18.8330737826801	8.488351096916098	83.66985912449607	0	0	0
189	1	1	-19.530595033890474	8.516297848766566	84.38587803707514	0	0	0
190	1	1	-20.22811628510085	9.150361792575389	84.71968489630892	0	0	0
191	1	1	-20.925637536311225	9.178308544425857	85.435703808888	0	0	0
192	1	1	-21.6231587875216	9.81237248823468	85.76951066812177	0	0	0
193	1	1	-22.320680038731975	9.840319240085147	86.48552958070084	0	0	0
194	1	1	-23.01820128994235	10.47438318389397	86.81933643993462	0	0	0
195	1	1	-23.715722541152726	10.502329935744438	87.53535535251369	0	0	0
196	1	1	-24.4132437923631	11.13639387955326	87.86916221174747	0	0	0
197	1	1	-25.110765043573476	11.164340631403729	88.58518112432654	0	0	0
198	1	1	-25.80828629478385	11.798404575212551	88.91898798356031	0	0	0
199	1	1	-26.505807545994227	11.82635132706302	89.63500689613939	0	0	0
200	1	1	-27.203328797204602	12.460415270871842	89.96881375537316	0	0	0
201	1	1	-27.900850048414977	12.48836202272231	90.68483266795224	0	0	0
202	1	1	-28.598371299625352	13.122425966531132	91.01863952718601	0	0	0
203	1	1	-29.295892550835728	13.1503727183816	91.73465843976508	0	0	0
204	1	1	-29.993413802046103	13.784436662190423	92.06846529899886	0	0	0
205	1	1	-30.690935053256478	13.812383414040891	92.78448421157793	0	0	0
206	1	1	-31.388456304466853	14.446447357849713	93.11829107081171	0	0	0
207	1	1	-32.085977555677225	14.474394109700182	93.83430998339078	0	0	0
208	1	1	-32.7834988068876	15.108458053509004	94.16811684262456	0	0	0
209	1	1	-33.481020058097975	15.136404805359472	94.88413575520363	0	0	0
210	1	1	-34.17854130930835	15.770468749168295	95.2179426144374	0	0	0
211	1	1	-34.876062560518726	15.798415501018763	95.93396152701648	0	0	0
212	1	1	-35.5735838117291	16.432479444827585	96.26776838625025	0	0	0
213	1	1	-36.271105062939476	16.460426196678053	96.98378729882933	0	0	0
214	1	1	-36.96862631414985	17.094490140486876	97.3175941580631	0	0	0
215	1	1	-37.66614756536023	17.122436892337344	98.03361307064218	0	0	0
216	1	1	-38.3636688165706	17.756500836146166	98.36741992987595	0	0	0
217	1	1	-39.06119006778098	17.784447587996635	99.08343884245502	0	0	0
218	1	1	-39.75871131899135	18.418511531805457	99.4172457016888	0	0	0
219	1	1	-40.45623257020173	18.446458283655925	100.13326461426787	0	0	0
220	1	1	-41.1537538214121	19.080522227464748	100.46707147350165	0	0	0
221	1	1	-41.85127507262248	19.108468979315216	101.18309038608072	0	0	0
222	1	1	-42.54879632383285	19.74253292312404	101.5168972453145	0	0	0
223	1	1	-43.24631757504323	19.770479674974506	102.23291615789357	0	0	0
224	1	1	-43.943838826253604	20.40454361878333	102.56672301712734	0	0	0
225	1	1	-44.64136007746398	20.432490370633797	103.28274192970642	0	0	0
226	1	1	-45.338881328674354	21.06655431444262	103.6165487889402	0	0	0
227	1	1	-46.03640257988473	21.094501066293088	104.33256770151927	0	0	0
228	1	1	-46.733923831095105	21.72856501010191	104.66637456075304	0	0	0
229	1	1	-47.43144508230548	21.75651176195238	105.38239347333212	0	0	0
230	1	1	-48.128966333515855	22.3905757057612	105.71620033256589	0	0	0
231	1	1	-48.82648758472623	22.41852245761167	106.43221924514496	0	0	0
232	1	1	-49.524008835936606	23.05258640142049	106.76602610437874	0	0	0
233	1	1	-50.22153008714698	23.08053315327096	107.48204501695781	0	0	0
234	1	1	-50.919051338357356	23.714597097079782	107.81585187619159	0	0	0
235	1	1	-51.61657258956773	23.74254384893025	108.53187078877066	0	0	0
236	1	1	-52.314093840778106	24.376607792739073	108.86567764800444	0	0	0
237	1	1	-53.01161509198848	24.40455454458954	109.58169656058351	0	0	0
238	1	1	-53.70913634319886	25.038618488398363	109.91550341981728	0	0	0
239	1	1	-54.40665759440923	25.06656524024883	110.63152233239636	0	0	0
240	1	1	-55.10417884561961	25.700629184057654	110.96532919163013	0	0	0
241	1	1	-55.80170009682998	25.728575935908122	111.6813481042092	0	0	0
242	1	1	0.8978761085673713	-0.41832023269019425	69.84861169468628	0	0	0
243	1	1	1.795752217134746	-0.5638858770824933	70.26409832122987	0	0	0
244	1	1	2.6936283257021207	-0.27684672575920666	70.59790518046364	0	0	0
245	1	1	3.5915044342694955	-0.42241237015150573	71.01339180700722	0	0	0
246	1	1	4.48938054283687	-0.13537321882821912	71.347198666241	0	0	0
247	1	1	5.387256651404245	-0.2809388632205182	71.76268529278458	0	0	0
248	1	1	6.28513275997162	0.006100288102768414	72.09649215201836	0	0	0
249	1	1	7.183008868538995	-0.13946535628953066	72.51197877856194	0	0	0
250	1	1	8.080884977106368	0.14757379503375595	72.84578563779571	0	0	0
251	1	1	8.978761085673742	0.002008150641456874	73.2612722643393	0	0	0
252	1	1	9.876637194241116	0.2890473019647435	73.59507912357307	0	0	0
253	1	1	10.77451330280849	0.1434816575724444	74.01056575011665	0	0	0
254	1	1	11.672389411375864	0.430520808895731	74.34437260935043	0	0	0
255	1	1	12.570265519943238	0.28495516450343195	74.75985923589401	0	0	0
256	1	1	13.468141628510612	0.5719943158267186	75.09366609512779	0	0	0
257	1	1	14.366017737077986	0.4264286714344195	75.50915272167137	0	0	0
258	1	1	15.26389384564536	0.713467822757706	75.84295958090514	0	0	0
259	1	1	16.161769954212733	0.567902178365407	76.25844620744873	0	0	0
260	1	1	17.059646062780107	0.8549413296886936	76.5922530666825	0	0	0
261	1	1	17.95752217134748	0.7093756852963946	77.00773969322609	0	0	0
262	1	1	18.855398279914855	0.9964148366196812	77.34154655245986	0	0	0
263	1	1	19.75327438848223	0.8508491922273822	77.75703317900344	0	0	0
264	1	1	20.651150497049603	1.1378883435506688	78.09084003823722	0	0	0
265	1	1	21.549026605616977	0.9923226991583698	78.5063266647808	0	0	0
266	1	1	22.44690271418435	1.2793618504816564	78.84013352401458	0	0	0
267	1	1	23.344778822751724	1.1337962060893574	79.25562015055816	0	0	0
268	1	1	24.242654931319098	1.420835357412644	79.58942700979193	0	0	0
269	1	1	25.140531039886472	1.275269713020345	80.00491363633552	0	0	0
270	1	1	26.038407148453846	1.5623088643436316	80.33872049556929	0	0	0
271	1	1	26.93628325702122	1.4167432199513326	80.75420712211287	0	0	0
272	1	1	27.834159365588594	1.7037823712746192	81.08801398134665	0	0	0
273	1	1	28.732035474155968	1.5582167268823202	81.50350060789023	0	0	0
274	1	1	29.62991158272334	1.8452558782056068	81.837307467124	0	0	0
275	1	1	30.527787691290715	1.6996902338133077	82.25279409366759	0	0	0
276	1	1	31.42566379985809	1.9867293851365944	82.58660095290136	0	0	0
277	1	1	32.32353990842547	1.8411637407442953	83.00208757944495	0	0	0
278	1	1	33.22141601699284	2.128202892067582	83.33589443867872	0	0	0
279	1	1	34.119292125560214	1.982637247675283	83.7513810652223	0	0	0
280	1	1	35.01716823412759	2.2696763989985698	84.08518792445608	0	0	0
281	1	1	35.91504434269496	2.1241107546062707	84.50067455099966	0	0	0
282	1	1	36.812920451262336	2.411149905929557	84.83448141023344	0	0	0
283	1	1	37.71079655982971	2.265584261537258	85.24996803677702	0	0	0
284	1	1	38.608672668397084	2.5526234128605445	85.5837748960108	0	0	0
285	1	1	39.50654877696446	2.4070577684682455	85.99926152255438	0	0	0
286	1	1	40.40442488553183	2.694096919791532	86.33306838178815	0	0	0
287	1	1	41.302300994099205	2.548531275399233	86.74855500833173	0	0	0
288	1	1	42.20017710266658	2.8355704267225192	87.08236186756551	0	0	0
289	1	1	43.09805321123395	2.6900047823302202	87.49784849410909	0	0	0
290	1	1	43.99592931980133	2.9770439336535066	87.83165535334287	0	0	0
291	1	1	44.8938054283687	2.8314782892612076	88.24714197988645	0	0	0
292	1	1	45.791681536936075	3.118517440584494	88.58094883912023	0	0	0
293	1	1	46.68955764550345	2.972951796192195	88.99643546566381	0	0	0
294	1	1	47.58743375407082	3.2599909475154814	89.33024232489758	0	0	0
295	1	1	48.485309862638196	3.1144253031231823	89.74572895144117	0	0	0
296	1	1	49.38318597120557	3.4014644544464687	90.07953581067494	0	0	0
297	1	1	50.281062079772944	3.2558988100541697	90.49502243721852	0	0	0
298	1	1	51.17893818834032	3.542937961377456	90.8288292964523	0	0	0
299	1	1	52.07681429690769	3.397372316985157	91.24431592299588	0	0	0
300	1	1	52.974690405475066	3.6844114683084435	91.57812278222966	0	0	0
301	1	1	53.87256651404244	3.5388458239161444	91.99360940877324	0	0	0
302	1	1	54.770442622609814	3.825884975239431	92.32741626800701	0	0	0
303	1	1	55.66831873117719	3.680319330847132	92.7429028945506	0	0	0
304	1	1	56.56619483974456	3.967358482170418	93.07670975378437	0	0	0
305	1	1	57.464070948311935	3.821792837778119	93.49219638032795	0	0	0
306	1	1	58.36194705687931	4.108831989101406	93.82600323956173	0	0	0
307	1	1	59.25982316544668	3.9632663447091065	94.24148986610531	0	0	0
308	1	1	60.15769927401406	4.250305496032393	94.57529672533909	0	0	0
309	1	1	61.05557538258143	4.104739851640094	94.99078335188267	0	0	0
310	1	1	61.953451491148805	4.39177900296338	95.32459021111644	0	0	0
311	1	1	62.85132759971618	4.246213358571081	95.74007683766003	0	0	0
312	1	1	63.74920370828355	4.533252509894368	96.0738836968938	0	0	0
313	1	1	64.64707981685093	4.387686865502069	96.48937032343738	0	0	0
314	1	1	65.54495592541831	4.674726016825355	96.82317718267116	0	0	0
315	1	1	66.44283203398568	4.529160372433056	97.23866380921474	0	0	0
316	1	1	67.34070814255305	4.816199523756342	97.57247066844852	0	0	0
317	1	1	68.23858425112043	4.670633879364043	97.9879572949921	0	0	0
318	1	1	69.1364603596878	4.95767303068733	98.32176415422587	0	0	0
319	1	1	70.03433646825518	4.812107386295031	98.73725078076946	0	0	0
320	1	1	70.93221257682255	5.099146537618317	99.07105764000323	0	0	0
321	1	1	71.83008868538992	4.953580893226018	99.48654426654682	0	0	0
322	1	1	72.394912776617	5.768201520675155	99.35476043102867	0	0	0
323	1	1	72.95973686784409	6.539575596252002	99.64794259538637	0	0	0
324	1	1	73.52456095907117	7.1791658363106965	99.12650413229493	0	0	0
325	1	1	74.08938505029825	7.950539911887542	99.41968629665263	0	0	0
326	1	1	74.65420914152533	8.590130151946237	98.89824783356119	0	0	0
327	1	1	75.21903323275241	9.361504227523083	99.19142999791889	0	0	0
328	1	1	75.78385732397949	10.001094467581778	98.66999153482745	0	0	0
329	1	1	76.34868141520657	10.772468543158624	98.96317369918515	0	0	0
330	1	1	76.91350550643365	11.412058783217319	98.4417352360937	0	0	0
331	1	1	77.47832959766073	12.183432858794164	98.73491740045141	0	0	0
332	1	1	78.04315368888781	12.82302309885286	98.21347893735997	0	0	0
333	1	1	78.6079777801149	13.594397174429705	98.50666110171767	0	0	0
334	1	1	79.17280187134197	14.2339874144884	97.98522263862623	0	0	0
335	1	1	79.73762596256906	15.005361490065246	98.27840480298393	0	0	0
336	1	1	80.30245005379614	15.64495173012394	97.75696633989249	0	0	0
337	1	1	80.86727414502322	16.416325805700787	98.05014850425019	0	0	0
338	1	1	81.4320982362503	17.05591604575948	97.52871004115875	0	0	0
339	1	1	81.99692232747738	17.82729012133633	97.82189220551645	0	0	0
340	1	1	82.56174641870446	18.466880361395024	97.300453742425	0	0	0
341	1	1	83.12657050993154	19.23825443697187	97.59363590678271	0	0	0
342	1	1	83.69139460115862	19.877844677030566	97.07219744369127	0	0	0
343	1	1	84.2562186923857	20.649218752607414	97.36537960804897	0	0	0
344	1	1	84.82104278361278	21.28880899266611	96.84394114495753	0	0	0
345	1	1	85.38586687483986	22.060183068242956	97.13712330931523	0	0	0
346	1	1	85.95069096606694	22.69977330830165	96.61568484622379	0	0	0
347	1	1	86.51551505729402	23.4711473838785	96.90886701058149	0	0	0
348	1	1	87.0803391485211	24.110737623937194	96.38742854749005	0	0	0
349	1	1	87.64516323974819	24.88211169951404	96.68061071184775	0	0	0
350	1	1	88.20998733097527	25.521701939572736	96.1591722487563	0	0	0
351	1	1	88.77481142220235	26.293076015149584	96.45235441311401	0	0	0
352	1	1	89.33963551342943	26.93266625520828	95.93091595002257	0	0	0
353	1	1	89.90445960465651	27.704040330785126	96.22409811438027	0	0	0
354	1	1	90.46928369588359	28.34363057084382	95.70265965128883	0	0	0
355	1	1	91.03410778711067	29.11500464642067	95.99584181564653	0	0	0
356	1	1	91.59893187833775	29.754594886479364	95.47440335255509	0	0	0
357	1	1	92.16375596956483	30.52596896205621	95.76758551691279	0	0	0
358	1	1	92.72858006079191	31.165559202114906	95.24614705382135	0	0	0
359	1	1	93.293404152019	31.936933277691754	95.53932921817905	0	0	0
360	1	1	93.85822824324607	32.57652351775045	95.0178907550876	0	0	0
361	1	1	94.42305233447316	33.347897593327296	95.31107291944531	0	0	0
362	1	1	94.98787642570024	33.98748783338599	94.78963445635387	0	0	0
363	1	1	95.55270051692732	34.758861908962835	95.08281662071157	0	0	0
364	1	1	96.1175246081544	35.39845214902153	94.56137815762013	0	0	0
365	1	1	96.68234869938148	36.169826224598374	94.85456032197783	0	0	0
366	1	1	97.24717279060856	36.80941646465707	94.33312185888639	0	0	0
367	1	1	97.81199688183564	37.58079054023391	94.62630402324409	0	0	0
368	1	1	98.37682097306272	38.22038078029261	94.10486556015265	0	0	0
369	1	1	98.9416450642898	38.99175485586945	94.39804772451035	0	0	0
370	1	1	99.50646915551688	39.63134509592815	93.8766092614189	0	0	0
371	1	1	100.07129324674396	40.40271917150499	94.16979142577661	0	0	0
372	1	1	100.63611733797104	41.042309411563686	93.64835296268517	0	0	0
373	1	1	101.20094142919812	41.81368348714053	93.94153512704287	0	0	0
374	1	1	101.7657655204252	42.453273727199225	93.42009666395143	0	0	0
375	1	1	102.33058961165229	43.22464780277607	93.71327882830913	0	0	0
376	1	1	102.89541370287937	43.864238042834764	93.19184036521769	0	0	0
377	1	1	103.46023779410645	44.63561211841161	93.48502252957539	0	0	0
378	1	1	104.02506188533353	45.2752023584703	92.96358406648395	0	0	0
379	1	1	104.58988597656061	46.04657643404715	93.25676623084165	0	0	0
380	1	1	105.15471006778769	46.68616667410584	92.7353277677502	0	0	0
381	1	1	105.71953415901477	47.457540749682686	93.02850993210791	0	0	0
382	1	1	106.28435825024185	48.09713098974138	92.50707146901647	0	0	0
383	1	1	106.84918234146893	48.868505065318224	92.80025363337417	0	0	0
384	1	1	107.41400643269601	49.50809530537692	92.27881517028273	0	0	0
385	1	1	107.9788305239231	50.27946938095376	92.57199733464043	0	0	0
386	1	1	108.54365461515017	50.91905962101246	92.05055887154899	0	0	0
387	1	1	109.10847870637726	51.6904336965893	92.34374103590669	0	0	0
388	1	1	109.67330279760434	52.330023936648	91.82230257281525	0	0	0
389	1	1	110.23812688883142	53.10139801222484	92.11548473717295	0	0	0
390	1	1	110.8029509800585	53.740988252283536	91.5940462740815	0	0	0
391	1	1	111.36777507128558	54.51236232786038	91.88722843843921	0	0	0
392	1	1	111.93259916251266	55.151952567919075	91.36578997534777	0	0	0
393	1	1	112.49742325373974	55.92332664349592	91.65897213970547	0	0	0
394	1	1	113.06224734496682	56.562916883554614	91.13753367661403	0	0	0
395	1	1	113.6270714361939	57.33429095913146	91.43071584097173	0	0	0
396	1	1	114.19189552742098	57.97388119919015	90.90927737788029	0	0	0
397	1	1	114.75671961864806	58.745255274767	91.20245954223799	0	0	0
398	1	1	115.32154370987514	59.38484551482569	90.68102107914655	0	0	0
399	1	1	115.88636780110222	60.156219590402536	90.97420324350425	0	0	0
400	1	1	116.4511918923293	60.79580983046123	90.4527647804128	0	0	0
401	1	1	117.01601598355639	61.567183906038075	90.74594694477051	0	0	0
402	1	1	72.27375770968176	4.167675305822874	99.05583531078614	0	0	0
403	1	1	72.7174267339736	3.7024155800359564	98.28987761975836	0	0	0
404	1	1	73.16109575826543	2.806446898488366	98.30982551613371	0	0	0
405	1	1	73.60476478255727	2.341187172701449	97.54386782510593	0	0	0
406	1	1	74.0484338068491	1.4452184911538586	97.56381572148129	0	0	0
407	1	1	74.49210283114094	0.9799587653669413	96.79785803045351	0	0	0
408	1	1	74.93577185543278	0.08399008381935091	96.81780592682887	0	0	0
409	1	1	75.37944087972461	-0.38126964196756646	96.05184823580109	0	0	0
410	1	1	75.82310990401645	-1.2772383235151568	96.07179613217644	0	0	0
411	1	1	76.26677892830828	-1.742498049302074	95.30583844114867	0	0	0
412	1	1	76.71044795260012	-2.6384667308496645	95.32578633752402	0	0	0
413	1	1	77.15411697689196	-3.103726456636582	94.55982864649624	0	0	0
414	1	1	77.59778600118379	-3.999695138184172	94.5797765428716	0	0	0
415	1	1	78.04145502547563	-4.46495486397109	93.81381885184382	0	0	0
416	1	1	78.48512404976746	-5.3609235455186806	93.83376674821918	0	0	0
417	1	1	78.9287930740593	-5.826183271305598	93.0678090571914	0	0	0
418	1	1	79.37246209835114	-6.722151952853189	93.08775695356675	0	0	0
419	1	1	79.81613112264297	-7.187411678640106	92.32179926253897	0	0	0
420	1	1	80.25980014693481	-8.083380360187697	92.34174715891433	0	0	0
421	1	1	80.70346917122664	-8.548640085974615	91.57578946788655	0	0	0
422	1	1	81.14713819551848	-9.444608767522205	91.59573736426191	0	0	0
423	1	1	81.59080721981032	-9.909868493309123	90.82977967323413	0	0	0
424	1	1	82.03447624410215	-10.805837174856713	90.84972756960948	0	0	0
425	1	1	82.47814526839399	-11.27109690064363	90.0837698785817	0	0	0
426	1	1	82.92181429268582	-12.16706558219122	90.10371777495706	0	0	0
427	1	1	83.36548331697766	-12.632325307978139	89.33776008392928	0	0	0
428	1	1	83.8091523412695	-13.528293989525729	89.35770798030464	0	0	0
429	1	1	84.25282136556133	-13.993553715312647	88.59175028927686	0	0	0
430	1	1	84.69649038985317	-14.889522396860237	88.61169818565222	0	0	0
431	1	1	85.140159414145	-15.354782122647155	87.84574049462444	0	0	0
432	1	1	85.58382843843684	-16.250750804194745	87.8656883909998	0	0	0
433	1	1	86.02749746272868	-16.716010529981663	87.09973069997201	0	0	0
434	1	1	86.47116648702051	-17.611979211529253	87.11967859634737	0	0	0
435	1	1	86.91483551131235	-18.07723893731617	86.35372090531959	0	0	0
436	1	1	87.35850453560418	-18.97320761886376	86.37366880169495	0	0	0
437	1	1	87.80217355989602	-19.43846734465068	85.60771111066717	0	0	0
438	1	1	88.24584258418786	-20.33443602619827	85.62765900704252	0	0	0
439	1	1	88.68951160847969	-20.799695751985187	84.86170131601475	0	0	0
440	1	1	89.13318063277153	-21.695664433532777	84.8816492123901	0	0	0
441	1	1	89.57684965706336	-22.160924159319695	84.11569152136232	0	0	0
442	1	1	90.0205186813552	-23.056892840867285	84.13563941773768	0	0	0
443	1	1	90.46418770564703	-23.522152566654203	83.3696817267099	0	0	0
444	1	1	90.90785672993887	-24.418121248201793	83.38962962308526	0	0	0
445	1	1	91.3515257542307	-24.88338097398871	82.62367193205748	0	0	0
446	1	1	91.79519477852254	-25.7793496555363	82.64361982843283	0	0	0
447	1	1	92.23886380281438	-26.24460938132322	81.87766213740505	0	0	0
448	1	1	92.68253282710621	-27.14057806287081	81.89761003378041	0	0	0
449	1	1	93.12620185139805	-27.605837788657727	81.13165234275263	0	0	0
450	1	1	93.56987087568989	-28.501806470205317	81.15160023912799	0	0	0
451	1	1	94.01353989998172	-28.967066195992235	80.38564254810021	0	0	0
452	1	1	94.45720892427356	-29.863034877539825	80.40559044447556	0	0	0
453	1	1	94.9008779485654	-30.328294603326743	79.63963275344778	0	0	0
454	1	1	95.34454697285723	-31.224263284874333	79.65958064982314	0	0	0
455	1	1	95.78821599714907	-31.68952301066125	78.89362295879536	0	0	0