bb360nuc3bl90bn4d30tot900

901 atoms
900 bonds
908 angles

1 atom types
1 bond types
1 angle types

-1000 1000 xlo xhi
-1000 1000 ylo yhi
-1000 1000 zlo zhi

Masses

1 1

Atoms

1	1	1	0.0	0.0	0.0	0	0	0
2	1	1	0.0	0.0	1.0	0	0	0
3	1	1	0.0	-0.49999999999999994	1.8660254037844388	0	0	0
4	1	1	0.0	0.0	2.7320508075688776	0	0	0
5	1	1	0.0	-0.49999999999999994	3.5980762113533165	0	0	0
6	1	1	0.0	0.0	4.464101615137755	0	0	0
7	1	1	0.0	-0.49999999999999994	5.330127018922194	0	0	0
8	1	1	0.0	0.0	6.196152422706632	0	0	0
9	1	1	0.0	-0.49999999999999994	7.06217782649107	0	0	0
10	1	1	0.0	0.0	7.928203230275509	0	0	0
11	1	1	0.0	-0.49999999999999994	8.794228634059948	0	0	0
12	1	1	0.0	0.0	9.660254037844387	0	0	0
13	1	1	0.0	-0.49999999999999994	10.526279441628827	0	0	0
14	1	1	0.0	0.0	11.392304845413266	0	0	0
15	1	1	0.0	-0.49999999999999994	12.258330249197705	0	0	0
16	1	1	0.0	0.0	13.124355652982144	0	0	0
17	1	1	0.0	-0.49999999999999994	13.990381056766584	0	0	0
18	1	1	0.0	0.0	14.856406460551023	0	0	0
19	1	1	0.0	-0.49999999999999994	15.722431864335462	0	0	0
20	1	1	0.0	0.0	16.5884572681199	0	0	0
21	1	1	0.0	-0.49999999999999994	17.454482671904337	0	0	0
22	1	1	0.0	0.0	18.320508075688775	0	0	0
23	1	1	0.0	-0.49999999999999994	19.186533479473212	0	0	0
24	1	1	0.0	0.0	20.05255888325765	0	0	0
25	1	1	0.0	-0.49999999999999994	20.918584287042087	0	0	0
26	1	1	0.0	0.0	21.784609690826525	0	0	0
27	1	1	0.0	-0.49999999999999994	22.650635094610962	0	0	0
28	1	1	0.0	0.0	23.5166604983954	0	0	0
29	1	1	0.0	-0.49999999999999994	24.382685902179837	0	0	0
30	1	1	0.0	0.0	25.248711305964274	0	0	0
31	1	1	0.0	-0.49999999999999994	26.114736709748712	0	0	0
32	1	1	0.0	0.0	26.98076211353315	0	0	0
33	1	1	0.0	-0.49999999999999994	27.846787517317587	0	0	0
34	1	1	0.0	0.0	28.712812921102024	0	0	0
35	1	1	0.0	-0.49999999999999994	29.578838324886462	0	0	0
36	1	1	0.0	0.0	30.4448637286709	0	0	0
37	1	1	0.0	-0.49999999999999994	31.310889132455337	0	0	0
38	1	1	0.0	0.0	32.17691453623978	0	0	0
39	1	1	0.0	-0.49999999999999994	33.04293994002422	0	0	0
40	1	1	0.0	0.0	33.90896534380866	0	0	0
41	1	1	0.0	-0.49999999999999994	34.7749907475931	0	0	0
42	1	1	0.0	0.0	35.64101615137754	0	0	0
43	1	1	0.0	-0.49999999999999994	36.50704155516198	0	0	0
44	1	1	0.0	0.0	37.373066958946424	0	0	0
45	1	1	0.0	-0.49999999999999994	38.239092362730865	0	0	0
46	1	1	0.0	0.0	39.105117766515306	0	0	0
47	1	1	0.0	-0.49999999999999994	39.97114317029975	0	0	0
48	1	1	0.0	0.0	40.83716857408419	0	0	0
49	1	1	0.0	-0.49999999999999994	41.70319397786863	0	0	0
50	1	1	0.0	0.0	42.56921938165307	0	0	0
51	1	1	0.0	-0.49999999999999994	43.43524478543751	0	0	0
52	1	1	0.0	0.0	44.30127018922195	0	0	0
53	1	1	0.0	-0.49999999999999994	45.16729559300639	0	0	0
54	1	1	0.0	0.0	46.033320996790835	0	0	0
55	1	1	0.0	-0.49999999999999994	46.899346400575276	0	0	0
56	1	1	0.0	0.0	47.76537180435972	0	0	0
57	1	1	0.0	-0.49999999999999994	48.63139720814416	0	0	0
58	1	1	0.0	0.0	49.4974226119286	0	0	0
59	1	1	0.0	-0.49999999999999994	50.36344801571304	0	0	0
60	1	1	0.0	0.0	51.22947341949748	0	0	0
61	1	1	0.0	-0.49999999999999994	52.09549882328192	0	0	0
62	1	1	0.0	0.0	52.96152422706636	0	0	0
63	1	1	0.0	-0.49999999999999994	53.827549630850804	0	0	0
64	1	1	0.0	0.0	54.693575034635245	0	0	0
65	1	1	0.0	-0.49999999999999994	55.559600438419686	0	0	0
66	1	1	0.0	0.0	56.42562584220413	0	0	0
67	1	1	0.0	-0.49999999999999994	57.29165124598857	0	0	0
68	1	1	0.0	0.0	58.15767664977301	0	0	0
69	1	1	0.0	-0.49999999999999994	59.02370205355745	0	0	0
70	1	1	0.0	0.0	59.88972745734189	0	0	0
71	1	1	0.0	-0.49999999999999994	60.75575286112633	0	0	0
72	1	1	0.0	0.0	61.62177826491077	0	0	0
73	1	1	0.0	-0.49999999999999994	62.487803668695214	0	0	0
74	1	1	0.0	0.0	63.353829072479655	0	0	0
75	1	1	0.0	-0.49999999999999994	64.21985447626409	0	0	0
76	1	1	0.0	0.0	65.08587988004852	0	0	0
77	1	1	0.0	-0.49999999999999994	65.95190528383296	0	0	0
78	1	1	0.0	0.0	66.81793068761739	0	0	0
79	1	1	0.0	-0.49999999999999994	67.68395609140183	0	0	0
80	1	1	0.0	0.0	68.54998149518626	0	0	0
81	1	1	0.0	-0.49999999999999994	69.41600689897069	0	0	0
82	1	1	0.0	0.0	70.28203230275513	0	0	0
83	1	1	0.0	-0.49999999999999994	71.14805770653956	0	0	0
84	1	1	0.0	0.0	72.014083110324	0	0	0
85	1	1	0.0	-0.49999999999999994	72.88010851410843	0	0	0
86	1	1	0.0	0.0	73.74613391789286	0	0	0
87	1	1	0.0	-0.49999999999999994	74.6121593216773	0	0	0
88	1	1	0.0	0.0	75.47818472546173	0	0	0
89	1	1	0.0	-0.49999999999999994	76.34421012924616	0	0	0
90	1	1	0.0	0.0	77.2102355330306	0	0	0
91	1	1	0.0	-0.49999999999999994	78.07626093681503	0	0	0
92	1	1	-0.6941658735164257	-0.11460818196374056	78.68421396677365	0	0	0
93	1	1	-1.3883317470328542	-0.08482559211298367	79.40341264404368	0	0	0
94	1	1	-2.082497620549283	0.5529100276964033	79.73721950327744	0	0	0
95	1	1	-2.776663494065712	0.5826926175471602	80.45641818054747	0	0	0
96	1	1	-3.470829367582141	1.2204282373565472	80.79022503978123	0	0	0
97	1	1	-4.16499524109857	1.250210827207304	81.50942371705126	0	0	0
98	1	1	-4.859161114614999	1.8879464470166911	81.84323057628502	0	0	0
99	1	1	-5.5533269881314276	1.917729036867448	82.56242925355505	0	0	0
100	1	1	-6.247492861647856	2.555464656676835	82.89623611278881	0	0	0
101	1	1	-6.941658735164285	2.585247246527592	83.61543479005884	0	0	0
102	1	1	-7.635824608680714	3.222982866336979	83.9492416492926	0	0	0
103	1	1	-8.329990482197143	3.252765456187736	84.66844032656263	0	0	0
104	1	1	-9.024156355713572	3.8905010759971232	85.00224718579639	0	0	0
105	1	1	-9.71832222923	3.9202836658478803	85.72144586306642	0	0	0
106	1	1	-10.41248810274643	4.558019285657267	86.05525272230018	0	0	0
107	1	1	-11.106653976262859	4.587801875508024	86.77445139957021	0	0	0
108	1	1	-11.800819849779288	5.225537495317411	87.10825825880397	0	0	0
109	1	1	-12.494985723295716	5.255320085168168	87.827456936074	0	0	0
110	1	1	-13.189151596812145	5.893055704977555	88.16126379530776	0	0	0
111	1	1	-13.883317470328574	5.922838294828312	88.88046247257779	0	0	0
112	1	1	-14.577483343845003	6.560573914637699	89.21426933181155	0	0	0
113	1	1	-15.271649217361432	6.590356504488455	89.93346800908158	0	0	0
114	1	1	-15.96581509087786	7.228092124297842	90.26727486831534	0	0	0
115	1	1	-16.65998096439429	7.257874714148599	90.98647354558537	0	0	0
116	1	1	-17.35414683791072	7.895610333957986	91.32028040481913	0	0	0
117	1	1	-18.048312711427148	7.925392923808743	92.03947908208916	0	0	0
118	1	1	-18.742478584943576	8.563128543618129	92.37328594132292	0	0	0
119	1	1	-19.436644458460005	8.592911133468887	93.09248461859295	0	0	0
120	1	1	-20.130810331976434	9.230646753278274	93.42629147782671	0	0	0
121	1	1	-20.824976205492863	9.260429343129031	94.14549015509674	0	0	0
122	1	1	-21.519142079009292	9.898164962938418	94.4792970143305	0	0	0
123	1	1	-22.21330795252572	9.927947552789176	95.19849569160053	0	0	0
124	1	1	-22.90747382604215	10.565683172598563	95.53230255083429	0	0	0
125	1	1	-23.60163969955858	10.59546576244932	96.25150122810432	0	0	0
126	1	1	-24.295805573075008	11.233201382258708	96.58530808733808	0	0	0
127	1	1	-24.989971446591436	11.262983972109465	97.3045067646081	0	0	0
128	1	1	-25.684137320107865	11.900719591918852	97.63831362384187	0	0	0
129	1	1	-26.378303193624294	11.93050218176961	98.3575123011119	0	0	0
130	1	1	-27.072469067140723	12.568237801578997	98.69131916034566	0	0	0
131	1	1	-27.766634940657152	12.598020391429754	99.41051783761569	0	0	0
132	1	1	-28.46080081417358	13.235756011239141	99.74432469684945	0	0	0
133	1	1	-29.15496668769001	13.265538601089899	100.46352337411948	0	0	0
134	1	1	-29.84913256120644	13.903274220899286	100.79733023335324	0	0	0
135	1	1	-30.543298434722868	13.933056810750044	101.51652891062326	0	0	0
136	1	1	-31.237464308239296	14.57079243055943	101.85033576985703	0	0	0
137	1	1	-31.931630181755725	14.600575020410188	102.56953444712705	0	0	0
138	1	1	-32.625796055272154	15.238310640219575	102.90334130636082	0	0	0
139	1	1	-33.31996192878858	15.268093230070333	103.62253998363084	0	0	0
140	1	1	-34.014127802305005	15.90582884987972	103.9563468428646	0	0	0
141	1	1	-34.70829367582143	15.935611439730478	104.67554552013463	0	0	0
142	1	1	-35.402459549337856	16.573347059539863	105.0093523793684	0	0	0
143	1	1	-36.09662542285428	16.60312964939062	105.72855105663842	0	0	0
144	1	1	-36.790791296370706	17.240865269200008	106.06235791587218	0	0	0
145	1	1	-37.48495716988713	17.270647859050765	106.78155659314221	0	0	0
146	1	1	-38.17912304340356	17.908383478860152	107.11536345237597	0	0	0
147	1	1	-38.87328891691998	17.93816606871091	107.834562129646	0	0	0
148	1	1	-39.56745479043641	18.575901688520297	108.16836898887976	0	0	0
149	1	1	-40.26162066395283	18.605684278371054	108.88756766614979	0	0	0
150	1	1	-40.95578653746926	19.24341989818044	109.22137452538355	0	0	0
151	1	1	-41.649952410985684	19.2732024880312	109.94057320265358	0	0	0
152	1	1	-42.34411828450211	19.910938107840586	110.27438006188734	0	0	0
153	1	1	-43.038284158018534	19.940720697691344	110.99357873915737	0	0	0
154	1	1	-43.73245003153496	20.57845631750073	111.32738559839113	0	0	0
155	1	1	-44.426615905051385	20.608238907351488	112.04658427566116	0	0	0
156	1	1	-45.12078177856781	21.245974527160875	112.38039113489492	0	0	0
157	1	1	-45.814947652084236	21.275757117011633	113.09958981216495	0	0	0
158	1	1	-46.50911352560066	21.91349273682102	113.43339667139871	0	0	0
159	1	1	-47.203279399117086	21.943275326671777	114.15259534866874	0	0	0
160	1	1	-47.89744527263351	22.581010946481165	114.4864022079025	0	0	0
161	1	1	-48.59161114614994	22.610793536331922	115.20560088517253	0	0	0
162	1	1	-49.28577701966636	23.24852915614131	115.53940774440629	0	0	0
163	1	1	-49.97994289318279	23.278311745992067	116.25860642167632	0	0	0
164	1	1	-50.67410876669921	23.916047365801454	116.59241328091008	0	0	0
165	1	1	-51.36827464021564	23.94582995565221	117.31161195818011	0	0	0
166	1	1	-52.062440513732064	24.5835655754616	117.64541881741387	0	0	0
167	1	1	-52.75660638724849	24.613348165312356	118.3646174946839	0	0	0
168	1	1	-53.450772260764914	25.251083785121743	118.69842435391766	0	0	0
169	1	1	-54.14493813428134	25.2808663749725	119.41762303118769	0	0	0
170	1	1	-54.839104007797765	25.918601994781888	119.75142989042145	0	0	0
171	1	1	-55.53326988131419	25.948384584632645	120.47062856769148	0	0	0
172	1	1	-56.227435754830616	26.586120204442032	120.80443542692524	0	0	0
173	1	1	-56.92160162834704	26.61590279429279	121.52363410419527	0	0	0
174	1	1	-57.615767501863466	27.253638414102177	121.85744096342903	0	0	0
175	1	1	-58.30993337537989	27.283421003952935	122.57663964069906	0	0	0
176	1	1	-59.00409924889632	27.92115662376232	122.91044649993282	0	0	0
177	1	1	-59.69826512241274	27.95093921361308	123.62964517720285	0	0	0
178	1	1	-60.39243099592917	28.588674833422466	123.9634520364366	0	0	0
179	1	1	-61.08659686944559	28.618457423273224	124.68265071370664	0	0	0
180	1	1	-61.78076274296202	29.25619304308261	125.0164575729404	0	0	0
181	1	1	-62.474928616478444	29.28597563293337	125.73565625021043	0	0	0
182	1	1	0.8993781844113524	-0.42242664830612653	78.50649489236935	0	0	0
183	1	1	1.7987563688227084	-0.5703631328596843	78.91787510329698	0	0	0
184	1	1	2.6981345532340644	-0.28806566185892807	79.25168196253074	0	0	0
185	1	1	3.5975127376454203	-0.4360021464124858	79.66306217345837	0	0	0
186	1	1	4.496890922056776	-0.15370467541172955	79.99686903269213	0	0	0
187	1	1	5.396269106468132	-0.3016411599652873	80.40824924361976	0	0	0
188	1	1	6.295647290879488	-0.019343688964531036	80.74205610285352	0	0	0
189	1	1	7.195025475290844	-0.1672801735180888	81.15343631378116	0	0	0
190	1	1	8.0944036597022	0.11501729748266745	81.48724317301492	0	0	0
191	1	1	8.993781844113556	-0.03291918707089031	81.89862338394255	0	0	0
192	1	1	9.893160028524912	0.24937828392986594	82.23243024317631	0	0	0
193	1	1	10.792538212936268	0.10144179937630818	82.64381045410394	0	0	0
194	1	1	11.691916397347624	0.38373927037706446	82.9776173133377	0	0	0
195	1	1	12.59129458175898	0.2358027858235067	83.38899752426533	0	0	0
196	1	1	13.490672766170336	0.518100256824263	83.7228043834991	0	0	0
197	1	1	14.390050950581692	0.3701637722707052	84.13418459442673	0	0	0
198	1	1	15.289429134993048	0.6524612432714614	84.46799145366049	0	0	0
199	1	1	16.188807319404404	0.5045247587179036	84.87937166458812	0	0	0
200	1	1	17.088185503815758	0.7868222297186598	85.21317852382188	0	0	0
201	1	1	17.987563688227112	0.638885745165102	85.62455873474951	0	0	0
202	1	1	18.886941872638467	0.9211832161658582	85.95836559398327	0	0	0
203	1	1	19.78632005704982	0.7732467316123004	86.3697458049109	0	0	0
204	1	1	20.685698241461175	1.0555442026130566	86.70355266414467	0	0	0
205	1	1	21.58507642587253	0.9076077180594988	87.1149328750723	0	0	0
206	1	1	22.484454610283883	1.189905189060255	87.44873973430606	0	0	0
207	1	1	23.383832794695238	1.0419687045066972	87.86011994523369	0	0	0
208	1	1	24.28321097910659	1.3242661755074534	88.19392680446745	0	0	0
209	1	1	25.182589163517946	1.1763296909538956	88.60530701539508	0	0	0
210	1	1	26.0819673479293	1.4586271619546518	88.93911387462884	0	0	0
211	1	1	26.981345532340654	1.310690677401094	89.35049408555648	0	0	0
212	1	1	27.88072371675201	1.5929881484018502	89.68430094479024	0	0	0
213	1	1	28.780101901163363	1.4450516638482924	90.09568115571787	0	0	0
214	1	1	29.679480085574717	1.7273491348490486	90.42948801495163	0	0	0
215	1	1	30.57885826998607	1.5794126502954908	90.84086822587926	0	0	0
216	1	1	31.478236454397425	1.861710121296247	91.17467508511302	0	0	0
217	1	1	32.37761463880878	1.7137736367426892	91.58605529604066	0	0	0
218	1	1	33.276992823220134	1.9960711077434454	91.91986215527442	0	0	0
219	1	1	34.17637100763149	1.8481346231898876	92.33124236620205	0	0	0
220	1	1	35.07574919204284	2.130432094190644	92.66504922543581	0	0	0
221	1	1	35.975127376454196	1.9824956096370863	93.07642943636344	0	0	0
222	1	1	36.87450556086555	2.2647930806378427	93.4102362955972	0	0	0
223	1	1	37.773883745276905	2.116856596084285	93.82161650652483	0	0	0
224	1	1	38.67326192968826	2.3991540670850413	94.1554233657586	0	0	0
225	1	1	39.57264011409961	2.2512175825314835	94.56680357668623	0	0	0
226	1	1	40.47201829851097	2.53351505353224	94.90061043591999	0	0	0
227	1	1	41.37139648292232	2.385578568978682	95.31199064684762	0	0	0
228	1	1	42.270774667333676	2.6678760399794386	95.64579750608138	0	0	0
229	1	1	43.17015285174503	2.5199395554258808	96.05717771700901	0	0	0
230	1	1	44.069531036156384	2.802237026426637	96.39098457624277	0	0	0
231	1	1	44.96890922056774	2.6543005418730794	96.8023647871704	0	0	0
232	1	1	45.86828740497909	2.936598012873836	97.13617164640416	0	0	0
233	1	1	46.76766558939045	2.788661528320278	97.5475518573318	0	0	0
234	1	1	47.6670437738018	3.0709589993210344	97.88135871656556	0	0	0
235	1	1	48.566421958213155	2.9230225147674767	98.29273892749319	0	0	0
236	1	1	49.46580014262451	3.205319985768233	98.62654578672695	0	0	0
237	1	1	50.36517832703586	3.0573835012146753	99.03792599765458	0	0	0
238	1	1	51.26455651144722	3.3396809722154317	99.37173285688834	0	0	0
239	1	1	52.16393469585857	3.191744487661874	99.78311306781598	0	0	0
240	1	1	53.063312880269926	3.4740419586626303	100.11691992704974	0	0	0
241	1	1	53.96269106468128	3.3261054741090725	100.52830013797737	0	0	0
242	1	1	54.862069249092634	3.608402945109829	100.86210699721113	0	0	0
243	1	1	55.76144743350399	3.460466460556271	101.27348720813876	0	0	0
244	1	1	56.66082561791534	3.7427639315570276	101.60729406737252	0	0	0
245	1	1	57.5602038023267	3.59482744700347	102.01867427830015	0	0	0
246	1	1	58.45958198673805	3.877124918004226	102.35248113753391	0	0	0
247	1	1	59.358960171149405	3.7291884334506684	102.76386134846155	0	0	0
248	1	1	60.25833835556076	4.011485904451424	103.0976682076953	0	0	0
249	1	1	61.157716539972114	3.8635494198978666	103.50904841862294	0	0	0
250	1	1	62.05709472438347	4.145846890898623	103.8428552778567	0	0	0
251	1	1	62.95647290879482	3.9979104063450652	104.25423548878433	0	0	0
252	1	1	63.85585109320618	4.280207877345822	104.58804234801809	0	0	0
253	1	1	64.75522927761753	4.132271392792264	104.99942255894572	0	0	0
254	1	1	65.65460746202889	4.41456886379302	105.33322941817949	0	0	0
255	1	1	66.55398564644025	4.2666323792394625	105.74460962910712	0	0	0
256	1	1	67.45336383085161	4.548929850240219	106.07841648834088	0	0	0
257	1	1	68.35274201526298	4.400993365686661	106.48979669926851	0	0	0
258	1	1	69.25212019967434	4.6832908366874175	106.82360355850227	0	0	0
259	1	1	70.1514983840857	4.53535435213386	107.2349837694299	0	0	0
260	1	1	71.05087656849706	4.817651823134616	107.56879062866366	0	0	0
261	1	1	71.95025475290842	4.669715338581058	107.9801708395913	0	0	0
262	1	1	72.84963293731978	4.952012809581815	108.31397769882506	0	0	0
263	1	1	73.74901112173114	4.804076325028257	108.72535790975269	0	0	0
264	1	1	74.6483893061425	5.086373796029013	109.05916476898645	0	0	0
265	1	1	75.54776749055387	4.938437311475456	109.47054497991408	0	0	0
266	1	1	76.44714567496523	5.220734782476212	109.80435183914784	0	0	0
267	1	1	77.34652385937659	5.072798297922654	110.21573205007547	0	0	0
268	1	1	78.24590204378795	5.355095768923411	110.54953890930923	0	0	0
269	1	1	79.14528022819931	5.207159284369853	110.96091912023687	0	0	0
270	1	1	80.04465841261067	5.489456755370609	111.29472597947063	0	0	0
271	1	1	80.94403659702203	5.3415202708170515	111.70610619039826	0	0	0
272	1	1	-0.20521231089491235	-1.4636754585807745	77.9053296114639	0	0	0
273	1	1	-0.4104246217898255	-2.2127772240397787	77.27546101211688	0	0	0
274	1	1	-0.6156369326847386	-3.13281031484992	77.60926787135064	0	0	0
275	1	1	-0.8208492435796517	-3.881912080308924	76.97939927200362	0	0	0
276	1	1	-1.0260615544745648	-4.8019451711190655	77.31320613123738	0	0	0
277	1	1	-1.231273865369478	-5.55104693657807	76.68333753189036	0	0	0
278	1	1	-1.436486176264391	-6.4710800273882105	77.01714439112412	0	0	0
279	1	1	-1.641698487159304	-7.220181792847215	76.3872757917771	0	0	0
280	1	1	-1.8469107980542172	-8.140214883657356	76.72108265101086	0	0	0
281	1	1	-2.0521231089491305	-8.88931664911636	76.09121405166384	0	0	0
282	1	1	-2.257335419844044	-9.809349739926501	76.4250209108976	0	0	0
283	1	1	-2.462547730738957	-10.558451505385506	75.79515231155058	0	0	0
284	1	1	-2.6677600416338705	-11.478484596195647	76.12895917078434	0	0	0
285	1	1	-2.872972352528784	-12.227586361654652	75.49909057143732	0	0	0
286	1	1	-3.078184663423697	-13.147619452464793	75.83289743067108	0	0	0
287	1	1	-3.2833969743186104	-13.896721217923798	75.20302883132406	0	0	0
288	1	1	-3.4886092852135238	-14.81675430873394	75.53683569055782	0	0	0
289	1	1	-3.693821596108437	-15.565856074192943	74.9069670912108	0	0	0
290	1	1	-3.8990339070033504	-16.485889165003083	75.24077395044456	0	0	0
291	1	1	-4.104246217898264	-17.234990930462086	74.61090535109754	0	0	0
292	1	1	-4.309458528793177	-18.155024021272226	74.9447122103313	0	0	0
293	1	1	-4.5146708396880895	-18.90412578673123	74.31484361098428	0	0	0
294	1	1	-4.719883150583002	-19.824158877541368	74.64865047021804	0	0	0
295	1	1	-4.925095461477915	-20.57326064300037	74.01878187087102	0	0	0
296	1	1	-5.130307772372828	-21.49329373381051	74.35258873010478	0	0	0
297	1	1	-5.335520083267741	-22.242395499269513	73.72272013075776	0	0	0
298	1	1	-5.540732394162654	-23.162428590079653	74.05652698999153	0	0	0
299	1	1	-5.745944705057567	-23.911530355538655	73.4266583906445	0	0	0
300	1	1	-5.95115701595248	-24.831563446348795	73.76046524987827	0	0	0
301	1	1	-6.1563693268473925	-25.580665211807798	73.13059665053125	0	0	0
302	1	1	-6.361581637742305	-26.500698302617938	73.464403509765	0	0	0
303	1	1	-6.566793948637218	-27.24980006807694	72.83453491041799	0	0	0
304	1	1	-6.772006259532131	-28.16983315888708	73.16834176965175	0	0	0
305	1	1	-6.977218570427044	-28.918934924346082	72.53847317030473	0	0	0
306	1	1	-7.182430881321957	-29.838968015156222	72.87228002953849	0	0	0
307	1	1	-7.38764319221687	-30.588069780615225	72.24241143019147	0	0	0
308	1	1	-7.592855503111783	-31.508102871425365	72.57621828942523	0	0	0
309	1	1	-7.7980678140066955	-32.25720463688437	71.94634969007821	0	0	0
310	1	1	-8.00328012490161	-33.17723772769451	72.28015654931197	0	0	0
311	1	1	-8.208492435796522	-33.92633949315351	71.65028794996495	0	0	0
312	1	1	-8.413704746691435	-34.84637258396366	71.98409480919871	0	0	0
313	1	1	-8.618917057586348	-35.59547434942266	71.35422620985169	0	0	0
314	1	1	-8.82412936848126	-36.5155074402328	71.68803306908545	0	0	0
315	1	1	-9.029341679376174	-37.264609205691805	71.05816446973843	0	0	0
316	1	1	-9.234553990271086	-38.18464229650195	71.39197132897219	0	0	0
317	1	1	-9.439766301166	-38.93374406196095	70.76210272962517	0	0	0
318	1	1	-9.644978612060912	-39.853777152771094	71.09590958885893	0	0	0
319	1	1	-9.850190922955825	-40.6028789182301	70.46604098951191	0	0	0
320	1	1	-10.055403233850738	-41.52291200904024	70.79984784874567	0	0	0
321	1	1	-10.26061554474565	-42.27201377449924	70.16997924939865	0	0	0
322	1	1	-10.465827855640564	-43.192046865309386	70.50378610863241	0	0	0
323	1	1	-10.671040166535477	-43.94114863076839	69.87391750928539	0	0	0
324	1	1	-10.87625247743039	-44.86118172157853	70.20772436851915	0	0	0
325	1	1	-11.081464788325302	-45.610283487037535	69.57785576917213	0	0	0
326	1	1	-11.286677099220215	-46.53031657784768	69.91166262840589	0	0	0
327	1	1	-11.491889410115128	-47.27941834330668	69.28179402905887	0	0	0
328	1	1	-11.697101721010041	-48.199451434116824	69.61560088829263	0	0	0
329	1	1	-11.902314031904954	-48.94855319957583	68.98573228894561	0	0	0
330	1	1	-12.107526342799867	-49.86858629038597	69.31953914817937	0	0	0
331	1	1	-12.31273865369478	-50.61768805584497	68.68967054883235	0	0	0
332	1	1	-12.517950964589692	-51.537721146655116	69.02347740806611	0	0	0
333	1	1	-12.723163275484605	-52.28682291211412	68.3936088087191	0	0	0
334	1	1	-12.928375586379518	-53.20685600292426	68.72741566795285	0	0	0
335	1	1	-13.133587897274431	-53.955957768383264	68.09754706860583	0	0	0
336	1	1	-13.338800208169344	-54.87599085919341	68.4313539278396	0	0	0
337	1	1	-13.544012519064257	-55.62509262465241	67.80148532849257	0	0	0
338	1	1	-13.74922482995917	-56.545125715462554	68.13529218772634	0	0	0
339	1	1	-13.954437140854083	-57.294227480921556	67.50542358837932	0	0	0
340	1	1	-14.159649451748995	-58.2142605717317	67.83923044761308	0	0	0
341	1	1	-14.364861762643908	-58.9633623371907	67.20936184826606	0	0	0
342	1	1	-14.570074073538821	-59.883395428000846	67.54316870749982	0	0	0
343	1	1	-14.775286384433734	-60.63249719345985	66.9133001081528	0	0	0
344	1	1	-14.980498695328647	-61.55253028426999	67.24710696738656	0	0	0
345	1	1	-15.18571100622356	-62.301632049728994	66.61723836803954	0	0	0
346	1	1	-15.390923317118473	-63.22166514053914	66.9510452272733	0	0	0
347	1	1	-15.596135628013386	-63.97076690599814	66.32117662792628	0	0	0
348	1	1	-15.801347938908298	-64.89079999680828	66.65498348716004	0	0	0
349	1	1	-16.00656024980321	-65.63990176226729	66.02511488781302	0	0	0
350	1	1	-16.211772560698126	-66.55993485307742	66.35892174704678	0	0	0
351	1	1	-16.41698487159304	-67.30903661853642	65.72905314769976	0	0	0
352	1	1	-16.622197182487955	-68.22906970934656	66.06286000693352	0	0	0
353	1	1	-16.82740949338287	-68.97817147480556	65.4329914075865	0	0	0
354	1	1	-17.032621804277785	-69.8982045656157	65.76679826682026	0	0	0
355	1	1	-17.2378341151727	-70.6473063310747	65.13692966747324	0	0	0
356	1	1	-17.443046426067614	-71.56733942188484	65.470736526707	0	0	0
357	1	1	-17.64825873696253	-72.31644118734384	64.84086792735998	0	0	0
358	1	1	-17.853471047857443	-73.23647427815398	65.17467478659374	0	0	0
359	1	1	-18.058683358752358	-73.98557604361298	64.54480618724672	0	0	0
360	1	1	-18.263895669647273	-74.90560913442312	64.87861304648048	0	0	0
361	1	1	-18.469107980542187	-75.65471089988212	64.24874444713346	0	0	0
362	1	1	-19.122902261274305	-75.34189658748772	63.55975950938576	0	0	0
363	1	1	-19.77669654200642	-74.72649897741297	63.11948820666861	0	0	0
364	1	1	-20.430490822738534	-74.80008630508591	62.36640259155707	0	0	0
365	1	1	-21.08428510347065	-74.18468869501116	61.92613128883992	0	0	0
366	1	1	-21.738079384202763	-74.2582760226841	61.173045673728375	0	0	0
367	1	1	-22.391873664934877	-73.64287841260935	60.732774371011224	0	0	0
368	1	1	-23.04566794566699	-73.71646574028229	59.97968875589968	0	0	0
369	1	1	-23.699462226399106	-73.10106813020754	59.53941745318253	0	0	0
370	1	1	-24.35325650713122	-73.17465545788048	58.786331838070986	0	0	0
371	1	1	-25.007050787863335	-72.55925784780572	58.346060535353836	0	0	0
372	1	1	-25.66084506859545	-72.63284517547866	57.59297492024229	0	0	0
373	1	1	-26.314639349327564	-72.01744756540391	57.15270361752514	0	0	0
374	1	1	-26.96843363005968	-72.09103489307685	56.3996180024136	0	0	0
375	1	1	-27.622227910791793	-71.4756372830021	55.95934669969645	0	0	0
376	1	1	-28.276022191523907	-71.54922461067504	55.2062610845849	0	0	0
377	1	1	-28.92981647225602	-70.93382700060029	54.76598978186775	0	0	0
378	1	1	-29.583610752988136	-71.00741432827323	54.01290416675621	0	0	0
379	1	1	-30.23740503372025	-70.39201671819848	53.57263286403906	0	0	0
380	1	1	-30.891199314452365	-70.46560404587142	52.81954724892751	0	0	0
381	1	1	-31.54499359518448	-69.85020643579666	52.37927594621036	0	0	0
382	1	1	-32.198787875916594	-69.9237937634696	51.62619033109882	0	0	0
383	1	1	-32.85258215664871	-69.30839615339485	51.18591902838167	0	0	0
384	1	1	-33.50637643738082	-69.38198348106779	50.432833413270124	0	0	0
385	1	1	-34.16017071811294	-68.76658587099304	49.992562110552974	0	0	0
386	1	1	-34.81396499884505	-68.84017319866598	49.23947649544143	0	0	0
387	1	1	-35.467759279577166	-68.22477558859123	48.79920519272428	0	0	0
388	1	1	-36.12155356030928	-68.29836291626417	48.046119577612735	0	0	0
389	1	1	-36.775347841041395	-67.68296530618942	47.605848274895585	0	0	0
390	1	1	-37.42914212177351	-67.75655263386236	46.85276265978404	0	0	0
391	1	1	-38.082936402505624	-67.1411550237876	46.41249135706689	0	0	0
392	1	1	-38.73673068323774	-67.21474235146054	45.65940574195535	0	0	0
393	1	1	-39.39052496396985	-66.59934474138579	45.219134439238196	0	0	0
394	1	1	-40.04431924470197	-66.67293206905873	44.46604882412665	0	0	0
395	1	1	-40.69811352543408	-66.05753445898398	44.0257775214095	0	0	0
396	1	1	-41.351907806166196	-66.13112178665692	43.27269190629796	0	0	0
397	1	1	-42.00570208689831	-65.51572417658217	42.83242060358081	0	0	0
398	1	1	-42.659496367630425	-65.58931150425511	42.07933498846926	0	0	0
399	1	1	-43.31329064836254	-64.97391389418036	41.63906368575211	0	0	0
400	1	1	-43.96708492909465	-65.0475012218533	40.88597807064057	0	0	0
401	1	1	-44.62087920982677	-64.43210361177854	40.44570676792342	0	0	0
402	1	1	-45.27467349055888	-64.50569093945148	39.692621152811874	0	0	0
403	1	1	-45.928467771291	-63.89029332937673	39.252349850094724	0	0	0
404	1	1	-46.58226205202311	-63.96388065704968	38.49926423498318	0	0	0
405	1	1	-47.236056332755226	-63.34848304697493	38.05899293226603	0	0	0
406	1	1	-47.88985061348734	-63.42207037464787	37.305907317154485	0	0	0
407	1	1	-48.543644894219454	-62.80667276457312	36.865636014437335	0	0	0
408	1	1	-49.19743917495157	-62.88026009224607	36.11255039932579	0	0	0
409	1	1	-49.85123345568368	-62.26486248217132	35.67227909660864	0	0	0
410	1	1	-50.5050277364158	-62.33844980984426	34.919193481497096	0	0	0
411	1	1	-51.15882201714791	-61.72305219976951	34.478922178779946	0	0	0
412	1	1	-51.81261629788003	-61.79663952744246	33.7258365636684	0	0	0
413	1	1	-52.46641057861214	-61.18124191736771	33.28556526095125	0	0	0
414	1	1	-53.120204859344256	-61.25482924504065	32.53247964583971	0	0	0
415	1	1	-53.77399914007637	-60.6394316349659	32.09220834312256	0	0	0
416	1	1	-54.427793420808484	-60.71301896263885	31.339122728011017	0	0	0
417	1	1	-55.0815877015406	-60.0976213525641	30.898851425293863	0	0	0
418	1	1	-55.73538198227271	-60.171208680237044	30.145765810182322	0	0	0
419	1	1	-56.38917626300483	-59.55581107016229	29.70549450746517	0	0	0
420	1	1	-57.04297054373694	-59.62939839783524	28.952408892353628	0	0	0
421	1	1	-57.69676482446906	-59.01400078776049	28.512137589636474	0	0	0
422	1	1	-58.35055910520117	-59.087588115433434	27.759051974524933	0	0	0
423	1	1	-59.004353385933285	-58.47219050535868	27.31878067180778	0	0	0
424	1	1	-59.6581476666654	-58.54577783303163	26.56569505669624	0	0	0
425	1	1	-60.311941947397514	-57.93038022295688	26.125423753979085	0	0	0
426	1	1	-60.96573622812963	-58.003967550629824	25.372338138867544	0	0	0
427	1	1	-61.61953050886174	-57.38856994055507	24.93206683615039	0	0	0
428	1	1	-62.27332478959386	-57.46215726822802	24.17898122103885	0	0	0
429	1	1	-62.92711907032597	-56.84675965815327	23.738709918321696	0	0	0
430	1	1	-63.580913351058086	-56.920346985826214	22.985624303210155	0	0	0
431	1	1	-64.2347076317902	-56.30494937575146	22.545353000493	0	0	0
432	1	1	-64.88850191252232	-56.37853670342441	21.79226738538146	0	0	0
433	1	1	-65.54229619325443	-55.76313909334966	21.351996082664307	0	0	0
434	1	1	-66.19609047398654	-55.836726421022604	20.598910467552766	0	0	0
435	1	1	-66.84988475471866	-55.22132881094785	20.158639164835613	0	0	0
436	1	1	-67.50367903545077	-55.2949161386208	19.405553549724072	0	0	0
437	1	1	-68.15747331618289	-54.67951852854605	18.96528224700692	0	0	0
438	1	1	-68.811267596915	-54.753105856218994	18.212196631895377	0	0	0
439	1	1	-69.46506187764712	-54.13770824614424	17.771925329178224	0	0	0
440	1	1	-70.11885615837923	-54.21129557381719	17.018839714066683	0	0	0
441	1	1	-70.77265043911135	-53.59589796374244	16.57856841134953	0	0	0
442	1	1	-71.42644471984346	-53.669485291415384	15.825482796237987	0	0	0
443	1	1	-72.08023900057557	-53.05408768134063	15.385211493520835	0	0	0
444	1	1	-72.73403328130769	-53.12767500901358	14.632125878409292	0	0	0
445	1	1	-73.3878275620398	-52.51227739893883	14.19185457569214	0	0	0
446	1	1	-74.04162184277192	-52.585864726611774	13.438768960580598	0	0	0
447	1	1	-74.69541612350403	-51.97046711653702	12.998497657863446	0	0	0
448	1	1	-75.34921040423615	-52.04405444420997	12.245412042751903	0	0	0
449	1	1	-76.00300468496826	-51.42865683413522	11.805140740034751	0	0	0
450	1	1	-76.65679896570037	-51.502244161808164	11.052055124923209	0	0	0
451	1	1	-77.31059324643249	-50.88684655173341	10.611783822206057	0	0	0
452	1	1	-18.862570284468244	-76.42038839991005	64.75759155711856	0	0	0
453	1	1	-19.2560325883943	-77.33790812103294	64.81542733099398	0	0	0
454	1	1	-19.64949489232036	-77.74658073217074	65.63894060489733	0	0	0