bb440nuc3bl110bn4d30tot1100

1101 atoms
1100 bonds
1108 angles

1 atom types
1 bond types
1 angle types

-1000 1000 xlo xhi
-1000 1000 ylo yhi
-1000 1000 zlo zhi

Masses

1 1

Atoms

1	1	1	0.0	0.0	0.0	0	0	0
2	1	1	0.0	0.0	1.0	0	0	0
3	1	1	0.0	-0.49999999999999994	1.8660254037844388	0	0	0
4	1	1	0.0	0.0	2.7320508075688776	0	0	0
5	1	1	0.0	-0.49999999999999994	3.5980762113533165	0	0	0
6	1	1	0.0	0.0	4.464101615137755	0	0	0
7	1	1	0.0	-0.49999999999999994	5.330127018922194	0	0	0
8	1	1	0.0	0.0	6.196152422706632	0	0	0
9	1	1	0.0	-0.49999999999999994	7.06217782649107	0	0	0
10	1	1	0.0	0.0	7.928203230275509	0	0	0
11	1	1	0.0	-0.49999999999999994	8.794228634059948	0	0	0
12	1	1	0.0	0.0	9.660254037844387	0	0	0
13	1	1	0.0	-0.49999999999999994	10.526279441628827	0	0	0
14	1	1	0.0	0.0	11.392304845413266	0	0	0
15	1	1	0.0	-0.49999999999999994	12.258330249197705	0	0	0
16	1	1	0.0	0.0	13.124355652982144	0	0	0
17	1	1	0.0	-0.49999999999999994	13.990381056766584	0	0	0
18	1	1	0.0	0.0	14.856406460551023	0	0	0
19	1	1	0.0	-0.49999999999999994	15.722431864335462	0	0	0
20	1	1	0.0	0.0	16.5884572681199	0	0	0
21	1	1	0.0	-0.49999999999999994	17.454482671904337	0	0	0
22	1	1	0.0	0.0	18.320508075688775	0	0	0
23	1	1	0.0	-0.49999999999999994	19.186533479473212	0	0	0
24	1	1	0.0	0.0	20.05255888325765	0	0	0
25	1	1	0.0	-0.49999999999999994	20.918584287042087	0	0	0
26	1	1	0.0	0.0	21.784609690826525	0	0	0
27	1	1	0.0	-0.49999999999999994	22.650635094610962	0	0	0
28	1	1	0.0	0.0	23.5166604983954	0	0	0
29	1	1	0.0	-0.49999999999999994	24.382685902179837	0	0	0
30	1	1	0.0	0.0	25.248711305964274	0	0	0
31	1	1	0.0	-0.49999999999999994	26.114736709748712	0	0	0
32	1	1	0.0	0.0	26.98076211353315	0	0	0
33	1	1	0.0	-0.49999999999999994	27.846787517317587	0	0	0
34	1	1	0.0	0.0	28.712812921102024	0	0	0
35	1	1	0.0	-0.49999999999999994	29.578838324886462	0	0	0
36	1	1	0.0	0.0	30.4448637286709	0	0	0
37	1	1	0.0	-0.49999999999999994	31.310889132455337	0	0	0
38	1	1	0.0	0.0	32.17691453623978	0	0	0
39	1	1	0.0	-0.49999999999999994	33.04293994002422	0	0	0
40	1	1	0.0	0.0	33.90896534380866	0	0	0
41	1	1	0.0	-0.49999999999999994	34.7749907475931	0	0	0
42	1	1	0.0	0.0	35.64101615137754	0	0	0
43	1	1	0.0	-0.49999999999999994	36.50704155516198	0	0	0
44	1	1	0.0	0.0	37.373066958946424	0	0	0
45	1	1	0.0	-0.49999999999999994	38.239092362730865	0	0	0
46	1	1	0.0	0.0	39.105117766515306	0	0	0
47	1	1	0.0	-0.49999999999999994	39.97114317029975	0	0	0
48	1	1	0.0	0.0	40.83716857408419	0	0	0
49	1	1	0.0	-0.49999999999999994	41.70319397786863	0	0	0
50	1	1	0.0	0.0	42.56921938165307	0	0	0
51	1	1	0.0	-0.49999999999999994	43.43524478543751	0	0	0
52	1	1	0.0	0.0	44.30127018922195	0	0	0
53	1	1	0.0	-0.49999999999999994	45.16729559300639	0	0	0
54	1	1	0.0	0.0	46.033320996790835	0	0	0
55	1	1	0.0	-0.49999999999999994	46.899346400575276	0	0	0
56	1	1	0.0	0.0	47.76537180435972	0	0	0
57	1	1	0.0	-0.49999999999999994	48.63139720814416	0	0	0
58	1	1	0.0	0.0	49.4974226119286	0	0	0
59	1	1	0.0	-0.49999999999999994	50.36344801571304	0	0	0
60	1	1	0.0	0.0	51.22947341949748	0	0	0
61	1	1	0.0	-0.49999999999999994	52.09549882328192	0	0	0
62	1	1	0.0	0.0	52.96152422706636	0	0	0
63	1	1	0.0	-0.49999999999999994	53.827549630850804	0	0	0
64	1	1	0.0	0.0	54.693575034635245	0	0	0
65	1	1	0.0	-0.49999999999999994	55.559600438419686	0	0	0
66	1	1	0.0	0.0	56.42562584220413	0	0	0
67	1	1	0.0	-0.49999999999999994	57.29165124598857	0	0	0
68	1	1	0.0	0.0	58.15767664977301	0	0	0
69	1	1	0.0	-0.49999999999999994	59.02370205355745	0	0	0
70	1	1	0.0	0.0	59.88972745734189	0	0	0
71	1	1	0.0	-0.49999999999999994	60.75575286112633	0	0	0
72	1	1	0.0	0.0	61.62177826491077	0	0	0
73	1	1	0.0	-0.49999999999999994	62.487803668695214	0	0	0
74	1	1	0.0	0.0	63.353829072479655	0	0	0
75	1	1	0.0	-0.49999999999999994	64.21985447626409	0	0	0
76	1	1	0.0	0.0	65.08587988004852	0	0	0
77	1	1	0.0	-0.49999999999999994	65.95190528383296	0	0	0
78	1	1	0.0	0.0	66.81793068761739	0	0	0
79	1	1	0.0	-0.49999999999999994	67.68395609140183	0	0	0
80	1	1	0.0	0.0	68.54998149518626	0	0	0
81	1	1	0.0	-0.49999999999999994	69.41600689897069	0	0	0
82	1	1	0.0	0.0	70.28203230275513	0	0	0
83	1	1	0.0	-0.49999999999999994	71.14805770653956	0	0	0
84	1	1	0.0	0.0	72.014083110324	0	0	0
85	1	1	0.0	-0.49999999999999994	72.88010851410843	0	0	0
86	1	1	0.0	0.0	73.74613391789286	0	0	0
87	1	1	0.0	-0.49999999999999994	74.6121593216773	0	0	0
88	1	1	0.0	0.0	75.47818472546173	0	0	0
89	1	1	0.0	-0.49999999999999994	76.34421012924616	0	0	0
90	1	1	0.0	0.0	77.2102355330306	0	0	0
91	1	1	0.0	-0.49999999999999994	78.07626093681503	0	0	0
92	1	1	0.0	0.0	78.94228634059947	0	0	0
93	1	1	0.0	-0.49999999999999994	79.8083117443839	0	0	0
94	1	1	0.0	0.0	80.67433714816833	0	0	0
95	1	1	0.0	-0.49999999999999994	81.54036255195277	0	0	0
96	1	1	0.0	0.0	82.4063879557372	0	0	0
97	1	1	0.0	-0.49999999999999994	83.27241335952164	0	0	0
98	1	1	0.0	0.0	84.13843876330607	0	0	0
99	1	1	0.0	-0.49999999999999994	85.0044641670905	0	0	0
100	1	1	0.0	0.0	85.87048957087494	0	0	0
101	1	1	0.0	-0.49999999999999994	86.73651497465937	0	0	0
102	1	1	0.0	0.0	87.6025403784438	0	0	0
103	1	1	0.0	-0.49999999999999994	88.46856578222824	0	0	0
104	1	1	0.0	0.0	89.33459118601267	0	0	0
105	1	1	0.0	-0.49999999999999994	90.20061658979711	0	0	0
106	1	1	0.0	0.0	91.06664199358154	0	0	0
107	1	1	0.0	-0.49999999999999994	91.93266739736598	0	0	0
108	1	1	0.0	0.0	92.79869280115041	0	0	0
109	1	1	0.0	-0.49999999999999994	93.66471820493484	0	0	0
110	1	1	0.0	0.0	94.53074360871928	0	0	0
111	1	1	0.0	-0.49999999999999994	95.39676901250371	0	0	0
112	1	1	0.8596911780399442	-1.0017586884177276	95.49252545874941	0	0	0
113	1	1	1.7193823560798922	-1.484172682279894	95.32457362956545	0	0	0
114	1	1	2.57907353411984	-1.8708302298963573	95.65838048879921	0	0	0
115	1	1	3.438764712159788	-2.353244223758524	95.49042865961525	0	0	0
116	1	1	4.298455890199736	-2.739901771374987	95.82423551884901	0	0	0
117	1	1	5.158147068239684	-3.2223157652371537	95.65628368966505	0	0	0
118	1	1	6.017838246279632	-3.608973312853617	95.9900905488988	0	0	0
119	1	1	6.8775294243195795	-4.0913873067157835	95.82213871971484	0	0	0
120	1	1	7.737220602359527	-4.478044854332247	96.1559455789486	0	0	0
121	1	1	8.596911780399475	-4.960458848194413	95.98799374976464	0	0	0
122	1	1	9.456602958439422	-5.347116395810877	96.3218006089984	0	0	0
123	1	1	10.316294136479371	-5.829530389673043	96.15384877981444	0	0	0
124	1	1	11.17598531451932	-6.216187937289507	96.4876556390482	0	0	0
125	1	1	12.035676492559269	-6.698601931151673	96.31970380986424	0	0	0
126	1	1	12.895367670599217	-7.085259478768137	96.653510669098	0	0	0
127	1	1	13.755058848639166	-7.567673472630303	96.48555883991403	0	0	0
128	1	1	14.614750026679115	-7.954331020246767	96.8193656991478	0	0	0
129	1	1	15.474441204719064	-8.436745014108933	96.65141386996383	0	0	0
130	1	1	16.334132382759012	-8.823402561725397	96.9852207291976	0	0	0
131	1	1	17.19382356079896	-9.305816555587564	96.81726890001363	0	0	0
132	1	1	18.05351473883891	-9.692474103204027	97.15107575924739	0	0	0
133	1	1	18.91320591687886	-10.174888097066194	96.98312393006343	0	0	0
134	1	1	19.772897094918807	-10.561545644682658	97.31693078929719	0	0	0
135	1	1	20.632588272958756	-11.043959638544825	97.14897896011323	0	0	0
136	1	1	21.492279450998705	-11.430617186161289	97.48278581934699	0	0	0
137	1	1	22.351970629038654	-11.913031180023456	97.31483399016302	0	0	0
138	1	1	23.211661807078602	-12.29968872763992	97.64864084939678	0	0	0
139	1	1	24.07135298511855	-12.782102721502087	97.48068902021282	0	0	0
140	1	1	24.9310441631585	-13.16876026911855	97.81449587944658	0	0	0
141	1	1	25.79073534119845	-13.651174262980717	97.64654405026262	0	0	0
142	1	1	26.650426519238398	-14.037831810597181	97.98035090949638	0	0	0
143	1	1	27.510117697278346	-14.520245804459348	97.81239908031242	0	0	0
144	1	1	28.369808875318295	-14.906903352075812	98.14620593954618	0	0	0
145	1	1	29.229500053358244	-15.389317345937979	97.97825411036222	0	0	0
146	1	1	30.089191231398193	-15.775974893554443	98.31206096959598	0	0	0
147	1	1	30.94888240943814	-16.258388887416608	98.14410914041201	0	0	0
148	1	1	31.80857358747809	-16.64504643503307	98.47791599964577	0	0	0
149	1	1	32.66826476551804	-17.127460428895237	98.30996417046181	0	0	0
150	1	1	33.527955943557984	-17.5141179765117	98.64377102969557	0	0	0
151	1	1	34.38764712159793	-17.996531970373866	98.47581920051161	0	0	0
152	1	1	35.247338299637875	-18.383189517990328	98.80962605974537	0	0	0
153	1	1	36.10702947767782	-18.865603511852495	98.6416742305614	0	0	0
154	1	1	36.966720655717765	-19.252261059468957	98.97548108979517	0	0	0
155	1	1	37.82641183375771	-19.734675053331124	98.8075292606112	0	0	0
156	1	1	38.686103011797655	-20.121332600947586	99.14133611984496	0	0	0
157	1	1	39.5457941898376	-20.603746594809753	98.973384290661	0	0	0
158	1	1	40.405485367877546	-20.990404142426215	99.30719114989476	0	0	0
159	1	1	41.26517654591749	-21.47281813628838	99.1392393207108	0	0	0
160	1	1	42.124867723957436	-21.859475683904844	99.47304617994456	0	0	0
161	1	1	42.98455890199738	-22.34188967776701	99.3050943507606	0	0	0
162	1	1	43.84425008003733	-22.728547225383473	99.63890120999436	0	0	0
163	1	1	44.70394125807727	-23.21096121924564	99.4709493808104	0	0	0
164	1	1	45.56363243611722	-23.5976187668621	99.80475624004416	0	0	0
165	1	1	46.42332361415716	-24.08003276072427	99.6368044108602	0	0	0
166	1	1	47.28301479219711	-24.46669030834073	99.97061127009395	0	0	0
167	1	1	48.14270597023705	-24.949104302202898	99.80265944090999	0	0	0
168	1	1	49.002397148277	-25.33576184981936	100.13646630014375	0	0	0
169	1	1	49.86208832631694	-25.818175843681527	99.96851447095979	0	0	0
170	1	1	50.72177950435689	-26.20483339129799	100.30232133019355	0	0	0
171	1	1	51.581470682396834	-26.687247385160155	100.13436950100959	0	0	0
172	1	1	52.44116186043678	-27.073904932776617	100.46817636024335	0	0	0
173	1	1	53.300853038476724	-27.556318926638784	100.30022453105938	0	0	0
174	1	1	54.16054421651667	-27.942976474255246	100.63403139029315	0	0	0
175	1	1	55.020235394556614	-28.425390468117413	100.46607956110918	0	0	0
176	1	1	55.87992657259656	-28.812048015733875	100.79988642034294	0	0	0
177	1	1	56.739617750636505	-29.294462009596042	100.63193459115898	0	0	0
178	1	1	57.59930892867645	-29.681119557212504	100.96574145039274	0	0	0
179	1	1	58.459000106716395	-30.16353355107467	100.79778962120878	0	0	0
180	1	1	59.31869128475634	-30.550191098691133	101.13159648044254	0	0	0
181	1	1	60.178382462796286	-31.0326050925533	100.96364465125858	0	0	0
182	1	1	61.03807364083623	-31.419262640169762	101.29745151049234	0	0	0
183	1	1	61.897764818876176	-31.90167663403193	101.12949968130837	0	0	0
184	1	1	62.75745599691612	-32.288334181648395	101.46330654054213	0	0	0
185	1	1	63.61714717495607	-32.77074817551056	101.29535471135817	0	0	0
186	1	1	64.47683835299601	-33.15740572312703	101.62916157059193	0	0	0
187	1	1	65.33652953103596	-33.639819716989194	101.46120974140797	0	0	0
188	1	1	66.19622070907592	-34.02647726460566	101.79501660064173	0	0	0
189	1	1	67.05591188711587	-34.50889125846783	101.62706477145777	0	0	0
190	1	1	67.91560306515582	-34.89554880608429	101.96087163069153	0	0	0
191	1	1	68.77529424319577	-35.37796279994646	101.79291980150757	0	0	0
192	1	1	69.63498542123573	-35.764620347562925	102.12672666074133	0	0	0
193	1	1	70.49467659927568	-36.24703434142509	101.95877483155736	0	0	0
194	1	1	71.35436777731563	-36.63369188904156	102.29258169079112	0	0	0
195	1	1	72.21405895535558	-37.116105882903724	102.12462986160716	0	0	0
196	1	1	73.07375013339554	-37.50276343052019	102.45843672084092	0	0	0
197	1	1	73.93344131143549	-37.98517742438236	102.29048489165696	0	0	0
198	1	1	74.79313248947544	-38.37183497199882	102.62429175089072	0	0	0
199	1	1	75.65282366751539	-38.85424896586099	102.45633992170676	0	0	0
200	1	1	76.51251484555534	-39.240906513477455	102.79014678094052	0	0	0
201	1	1	77.3722060235953	-39.72332050733962	102.62219495175655	0	0	0
202	1	1	78.23189720163525	-40.10997805495609	102.95600181099032	0	0	0
203	1	1	79.0915883796752	-40.592392048818255	102.78804998180635	0	0	0
204	1	1	79.95127955771515	-40.97904959643472	103.12185684104011	0	0	0
205	1	1	80.8109707357551	-41.46146359029689	102.95390501185615	0	0	0
206	1	1	81.67066191379506	-41.84812113791335	103.28771187108991	0	0	0
207	1	1	82.53035309183501	-42.33053513177552	103.11976004190595	0	0	0
208	1	1	83.39004426987496	-42.717192679391985	103.45356690113971	0	0	0
209	1	1	84.24973544791492	-43.19960667325415	103.28561507195575	0	0	0
210	1	1	85.10942662595487	-43.58626422087062	103.6194219311895	0	0	0
211	1	1	85.96911780399482	-44.068678214732785	103.45147010200554	0	0	0
212	1	1	86.82880898203477	-44.45533576234925	103.7852769612393	0	0	0
213	1	1	87.68850016007472	-44.93774975621142	103.61732513205534	0	0	0
214	1	1	88.54819133811468	-45.32440730382788	103.9511319912891	0	0	0
215	1	1	89.40788251615463	-45.80682129769005	103.78318016210514	0	0	0
216	1	1	90.26757369419458	-46.193478845306515	104.1169870213389	0	0	0
217	1	1	91.12726487223453	-46.67589283916868	103.94903519215494	0	0	0
218	1	1	91.98695605027449	-47.06255038678515	104.2828420513887	0	0	0
219	1	1	92.84664722831444	-47.544964380647315	104.11489022220474	0	0	0
220	1	1	93.70633840635439	-47.93162192826378	104.4486970814385	0	0	0
221	1	1	94.56602958439434	-48.41403592212595	104.28074525225453	0	0	0
222	1	1	-0.7647008478208138	-1.1442441837464221	95.41026141966577	0	0	0
223	1	1	-1.5294016956416308	-1.7089222166922273	95.09982409515311	0	0	0
224	1	1	-2.2941025434624476	-2.2601078424759695	95.43363095438687	0	0	0
225	1	1	-3.0588033912832646	-2.8247858754217745	95.12319362987421	0	0	0
226	1	1	-3.8235042391040817	-3.3759715012055165	95.45700048910797	0	0	0
227	1	1	-4.588205086924899	-3.940649534151322	95.1465631645953	0	0	0
228	1	1	-5.352905934745715	-4.491835159935064	95.48037002382907	0	0	0
229	1	1	-6.117606782566532	-5.056513192880869	95.1699326993164	0	0	0
230	1	1	-6.8823076303873485	-5.607698818664611	95.50373955855017	0	0	0
231	1	1	-7.647008478208165	-6.172376851610416	95.1933022340375	0	0	0
232	1	1	-8.411709326028982	-6.723562477394157	95.52710909327126	0	0	0
233	1	1	-9.1764101738498	-7.288240510339962	95.2166717687586	0	0	0
234	1	1	-9.941111021670617	-7.839426136123704	95.55047862799236	0	0	0
235	1	1	-10.705811869491434	-8.404104169069509	95.2400413034797	0	0	0
236	1	1	-11.470512717312252	-8.95528979485325	95.57384816271346	0	0	0
237	1	1	-12.23521356513307	-9.519967827799055	95.2634108382008	0	0	0
238	1	1	-12.999914412953887	-10.071153453582797	95.59721769743456	0	0	0
239	1	1	-13.764615260774704	-10.635831486528602	95.2867803729219	0	0	0
240	1	1	-14.529316108595522	-11.187017112312343	95.62058723215566	0	0	0
241	1	1	-15.294016956416339	-11.751695145258148	95.310149907643	0	0	0
242	1	1	-16.058717804237155	-12.30288077104189	95.64395676687676	0	0	0
243	1	1	-16.82341865205797	-12.867558803987695	95.33351944236409	0	0	0
244	1	1	-17.588119499878786	-13.418744429771436	95.66732630159785	0	0	0
245	1	1	-18.352820347699602	-13.983422462717241	95.35688897708519	0	0	0
246	1	1	-19.117521195520418	-14.534608088500983	95.69069583631895	0	0	0
247	1	1	-19.882222043341233	-15.099286121446788	95.38025851180629	0	0	0
248	1	1	-20.64692289116205	-15.65047174723053	95.71406537104005	0	0	0
249	1	1	-21.411623738982865	-16.215149780176336	95.40362804652739	0	0	0
250	1	1	-22.17632458680368	-16.766335405960078	95.73743490576115	0	0	0
251	1	1	-22.941025434624496	-17.331013438905885	95.42699758124849	0	0	0
252	1	1	-23.705726282445312	-17.882199064689626	95.76080444048225	0	0	0
253	1	1	-24.470427130266128	-18.446877097635433	95.45036711596958	0	0	0
254	1	1	-25.235127978086943	-18.998062723419174	95.78417397520334	0	0	0
255	1	1	-25.99982882590776	-19.56274075636498	95.47373665069068	0	0	0
256	1	1	-26.764529673728575	-20.113926382148723	95.80754350992444	0	0	0
257	1	1	-27.52923052154939	-20.67860441509453	95.49710618541178	0	0	0
258	1	1	-28.293931369370206	-21.22979004087827	95.83091304464554	0	0	0
259	1	1	-29.058632217191022	-21.794468073824078	95.52047572013288	0	0	0
260	1	1	-29.823333065011838	-22.34565369960782	95.85428257936664	0	0	0
261	1	1	-30.588033912832653	-22.910331732553626	95.54384525485398	0	0	0
262	1	1	-31.35273476065347	-23.461517358337368	95.87765211408774	0	0	0
263	1	1	-32.11743560847429	-24.026195391283174	95.56721478957508	0	0	0
264	1	1	-32.88213645629511	-24.577381017066916	95.90102164880884	0	0	0
265	1	1	-33.64683730411593	-25.142059050012723	95.59058432429617	0	0	0
266	1	1	-34.411538151936746	-25.693244675796464	95.92439118352993	0	0	0
267	1	1	-35.176238999757565	-26.25792270874227	95.61395385901727	0	0	0
268	1	1	-35.940939847578385	-26.809108334526012	95.94776071825103	0	0	0
269	1	1	-36.705640695399204	-27.37378636747182	95.63732339373837	0	0	0
270	1	1	-37.47034154322002	-27.92497199325556	95.97113025297213	0	0	0
271	1	1	-38.23504239104084	-28.489650026201367	95.66069292845947	0	0	0
272	1	1	-38.99974323886166	-29.04083565198511	95.99449978769323	0	0	0
273	1	1	-39.76444408668248	-29.605513684930916	95.68406246318057	0	0	0
274	1	1	-40.5291449345033	-30.156699310714657	96.01786932241433	0	0	0
275	1	1	-41.29384578232412	-30.721377343660464	95.70743199790166	0	0	0
276	1	1	-42.05854663014494	-31.272562969444206	96.04123885713543	0	0	0
277	1	1	-42.82324747796576	-31.837241002390012	95.73080153262276	0	0	0
278	1	1	-43.58794832578658	-32.388426628173754	96.06460839185652	0	0	0
279	1	1	-44.3526491736074	-32.95310466111956	95.75417106734386	0	0	0
280	1	1	-45.117350021428216	-33.504290286903306	96.08797792657762	0	0	0
281	1	1	-45.882050869249035	-34.06896831984911	95.77754060206496	0	0	0
282	1	1	-46.646751717069854	-34.62015394563286	96.11134746129872	0	0	0
283	1	1	-47.41145256489067	-35.184831978578664	95.80091013678606	0	0	0
284	1	1	-48.17615341271149	-35.73601760436241	96.13471699601982	0	0	0
285	1	1	-48.94085426053231	-36.300695637308216	95.82427967150716	0	0	0
286	1	1	-49.70555510835313	-36.85188126309196	96.15808653074092	0	0	0
287	1	1	-50.47025595617395	-37.41655929603777	95.84764920622825	0	0	0
288	1	1	-51.23495680399477	-37.96774492182151	96.18145606546202	0	0	0
289	1	1	-51.99965765181559	-38.53242295476732	95.87101874094935	0	0	0
290	1	1	-52.76435849963641	-39.083608580551065	96.20482560018311	0	0	0
291	1	1	-53.52905934745723	-39.64828661349687	95.89438827567045	0	0	0
292	1	1	-54.29376019527805	-40.19947223928062	96.22819513490421	0	0	0
293	1	1	-55.058461043098866	-40.76415027222642	95.91775781039155	0	0	0
294	1	1	-55.823161890919685	-41.31533589801017	96.25156466962531	0	0	0
295	1	1	-56.587862738740505	-41.880013930955975	95.94112734511265	0	0	0
296	1	1	-57.352563586561324	-42.43119955673972	96.27493420434641	0	0	0
297	1	1	-58.11726443438214	-42.99587758968553	95.96449687983375	0	0	0
298	1	1	-58.88196528220296	-43.54706321546927	96.2983037390675	0	0	0
299	1	1	-59.64666613002378	-44.11174124841508	95.98786641455484	0	0	0
300	1	1	-60.4113669778446	-44.662926874198824	96.3216732737886	0	0	0
301	1	1	-61.17606782566542	-45.22760490714463	96.01123594927594	0	0	0
302	1	1	-61.94076867348624	-45.778790532928376	96.3450428085097	0	0	0
303	1	1	-62.70546952130706	-46.34346856587418	96.03460548399704	0	0	0
304	1	1	-63.47017036912788	-46.89465419165793	96.3684123432308	0	0	0
305	1	1	-64.23487121694869	-47.459332224603735	96.05797501871814	0	0	0
306	1	1	-64.99957206476951	-48.01051785038748	96.3917818779519	0	0	0
307	1	1	-65.76427291259033	-48.575195883333286	96.08134455343924	0	0	0
308	1	1	-66.52897376041115	-49.12638150911703	96.415151412673	0	0	0
309	1	1	-67.29367460823197	-49.69105954206284	96.10471408816034	0	0	0
310	1	1	-68.05837545605279	-50.24224516784658	96.4385209473941	0	0	0
311	1	1	-68.8230763038736	-50.80692320079239	96.12808362288143	0	0	0
312	1	1	-69.58777715169443	-51.358108826576135	96.4618904821152	0	0	0
313	1	1	-70.35247799951524	-51.92278685952194	96.15145315760253	0	0	0
314	1	1	-71.11717884733606	-52.47397248530569	96.48526001683629	0	0	0
315	1	1	-71.88187969515688	-53.038650518251494	96.17482269232363	0	0	0
316	1	1	-72.6465805429777	-53.58983614403524	96.50862955155739	0	0	0
317	1	1	-73.41128139079852	-54.154514176981046	96.19819222704473	0	0	0
318	1	1	-74.17598223861934	-54.70569980276479	96.53199908627849	0	0	0
319	1	1	-74.94068308644016	-55.2703778357106	96.22156176176583	0	0	0
320	1	1	-75.70538393426098	-55.82156346149434	96.55536862099959	0	0	0
321	1	1	-76.4700847820818	-56.38624149444015	96.24493129648693	0	0	0
322	1	1	-77.23478562990262	-56.937427120223894	96.57873815572069	0	0	0
323	1	1	-77.99948647772344	-57.5021051531697	96.26830083120802	0	0	0
324	1	1	-78.76418732554426	-58.053290778953446	96.60210769044178	0	0	0
325	1	1	-79.52888817336508	-58.61796881189925	96.29167036592912	0	0	0
326	1	1	-80.2935890211859	-59.169154437683	96.62547722516288	0	0	0
327	1	1	-81.05828986900671	-59.733832470628805	96.31503990065022	0	0	0
328	1	1	-81.82299071682753	-60.28501809641255	96.64884675988398	0	0	0
329	1	1	-82.58769156464835	-60.84969612935836	96.33840943537132	0	0	0
330	1	1	-83.35239241246917	-61.4008817551421	96.67221629460508	0	0	0
331	1	1	-84.11709326028999	-61.96555978808791	96.36177897009242	0	0	0
332	1	1	-0.09499033021914265	0.14529258331349754	96.15477581925774	0	0	0
333	1	1	-0.18998066043828565	0.3251289499596578	97.133875261805	0	0	0
334	1	1	-0.2849709906574287	1.2629721233598523	97.46768212103876	0	0	0
335	1	1	-0.37996132087657175	1.4428084900060125	98.44678156358603	0	0	0
336	1	1	-0.4749516510957148	2.380651663406207	98.78058842281979	0	0	0
337	1	1	-0.5699419813148578	2.5604880300523676	99.75968786536706	0	0	0
338	1	1	-0.6649323115340009	3.498331203452562	100.09349472460082	0	0	0
339	1	1	-0.759922641753144	3.6781675700987226	101.07259416714808	0	0	0
340	1	1	-0.854912971972287	4.616010743498917	101.40640102638184	0	0	0
341	1	1	-0.94990330219143	4.795847110145077	102.38550046892911	0	0	0
342	1	1	-1.044893632410573	5.733690283545272	102.71930732816287	0	0	0
343	1	1	-1.1398839626297161	5.913526650191432	103.69840677071014	0	0	0
344	1	1	-1.2348742928488592	6.851369823591627	104.0322136299439	0	0	0
345	1	1	-1.3298646230680022	7.031206190237787	105.01131307249116	0	0	0
346	1	1	-1.4248549532871453	7.969049363637982	105.34511993172492	0	0	0
347	1	1	-1.5198452835062883	8.148885730284142	106.32421937427219	0	0	0
348	1	1	-1.6148356137254314	9.086728903684337	106.65802623350595	0	0	0
349	1	1	-1.7098259439445744	9.266565270330497	107.63712567605322	0	0	0
350	1	1	-1.8048162741637175	10.204408443730692	107.97093253528698	0	0	0
351	1	1	-1.8998066043828605	10.384244810376853	108.95003197783424	0	0	0
352	1	1	-1.9947969346020036	11.322087983777047	109.283838837068	0	0	0
353	1	1	-2.0897872648211466	11.501924350423208	110.26293827961527	0	0	0
354	1	1	-2.1847775950402895	12.439767523823402	110.59674513884903	0	0	0
355	1	1	-2.2797679252594323	12.619603890469563	111.5758445813963	0	0	0
356	1	1	-2.374758255478575	13.557447063869757	111.90965144063006	0	0	0
357	1	1	-2.469748585697718	13.737283430515918	112.88875088317732	0	0	0
358	1	1	-2.5647389159168608	14.675126603916112	113.22255774241108	0	0	0
359	1	1	-2.6597292461360036	14.854962970562273	114.20165718495835	0	0	0
360	1	1	-2.7547195763551464	15.792806143962467	114.53546404419211	0	0	0
361	1	1	-2.8497099065742892	15.972642510608628	115.51456348673938	0	0	0
362	1	1	-2.944700236793432	16.910485684008822	115.84837034597314	0	0	0
363	1	1	-3.039690567012575	17.090322050654983	116.8274697885204	0	0	0
364	1	1	-3.1346808972317177	18.028165224055176	117.16127664775416	0	0	0
365	1	1	-3.2296712274508605	18.208001590701336	118.14037609030143	0	0	0
366	1	1	-3.3246615576700034	19.14584476410153	118.47418294953519	0	0	0
367	1	1	-3.419651887889146	19.32568113074769	119.45328239208246	0	0	0
368	1	1	-3.514642218108289	20.263524304147882	119.78708925131622	0	0	0
369	1	1	-3.609632548327432	20.443360670794043	120.76618869386348	0	0	0
370	1	1	-3.7046228785465747	21.381203844194236	121.09999555309724	0	0	0
371	1	1	-3.7996132087657175	21.561040210840396	122.07909499564451	0	0	0
372	1	1	-3.8946035389848603	22.49888338424059	122.41290185487827	0	0	0
373	1	1	-3.989593869204003	22.67871975088675	123.39200129742554	0	0	0
374	1	1	-4.084584199423146	23.616562924286942	123.7258081566593	0	0	0
375	1	1	-4.179574529642289	23.796399290933103	124.70490759920656	0	0	0
376	1	1	-4.274564859861432	24.734242464333295	125.03871445844032	0	0	0
377	1	1	-4.3695551900805745	24.914078830979456	126.01781390098759	0	0	0
378	1	1	-4.464545520299717	25.85192200437965	126.35162076022135	0	0	0
379	1	1	-4.55953585051886	26.03175837102581	127.33072020276862	0	0	0
380	1	1	-4.654526180738003	26.969601544426002	127.66452706200238	0	0	0
381	1	1	-4.749516510957146	27.149437911072162	128.64362650454964	0	0	0
382	1	1	-4.844506841176289	28.087281084472355	128.9774333637834	0	0	0
383	1	1	-4.939497171395431	28.267117451118516	129.95653280633067	0	0	0
384	1	1	-5.034487501614574	29.20496062451871	130.29033966556443	0	0	0
385	1	1	-5.129477831833717	29.38479699116487	131.2694391081117	0	0	0
386	1	1	-5.22446816205286	30.322640164565062	131.60324596734546	0	0	0
387	1	1	-5.319458492272003	30.502476531211222	132.58234540989272	0	0	0
388	1	1	-5.414448822491146	31.440319704611415	132.91615226912648	0	0	0
389	1	1	-5.509439152710288	31.620156071257576	133.89525171167375	0	0	0
390	1	1	-5.604429482929431	32.55799924465777	134.2290585709075	0	0	0
391	1	1	-5.699419813148574	32.73783561130393	135.20815801345478	0	0	0
392	1	1	-5.794410143367717	33.675678784704125	135.54196487268854	0	0	0
393	1	1	-5.88940047358686	33.85551515135028	136.5210643152358	0	0	0
394	1	1	-5.9843908038060025	34.79335832475048	136.85487117446957	0	0	0
395	1	1	-6.079381134025145	34.973194691396635	137.83397061701683	0	0	0
396	1	1	-6.174371464244288	35.91103786479683	138.1677774762506	0	0	0
397	1	1	-6.269361794463431	36.09087423144299	139.14687691879786	0	0	0
398	1	1	-6.364352124682574	37.028717404843185	139.48068377803162	0	0	0
399	1	1	-6.459342454901717	37.20855377148934	140.45978322057888	0	0	0
400	1	1	-6.5543327851208595	38.14639694488954	140.79359007981265	0	0	0
401	1	1	-6.649323115340002	38.326233311535695	141.7726895223599	0	0	0
402	1	1	-6.744313445559145	39.26407648493589	142.10649638159367	0	0	0
403	1	1	-6.839303775778288	39.44391285158205	143.08559582414094	0	0	0
404	1	1	-6.934294105997431	40.381756024982245	143.4194026833747	0	0	0
405	1	1	-7.029284436216574	40.5615923916284	144.39850212592196	0	0	0
406	1	1	-7.124274766435716	41.4994355650286	144.73230898515573	0	0	0
407	1	1	-7.219265096654859	41.679271931674755	145.711408427703	0	0	0
408	1	1	-7.314255426874002	42.61711510507495	146.04521528693675	0	0	0
409	1	1	-7.409245757093145	42.79695147172111	147.02431472948402	0	0	0
410	1	1	-7.504236087312288	43.734794645121305	147.35812158871778	0	0	0
411	1	1	-7.599226417531431	43.91463101176746	148.33722103126505	0	0	0
412	1	1	-7.694216747750573	44.85247418516766	148.6710278904988	0	0	0
413	1	1	-7.789207077969716	45.032310551813815	149.65012733304607	0	0	0
414	1	1	-7.884197408188859	45.97015372521401	149.98393419227983	0	0	0
415	1	1	-7.979187738408002	46.14999009186017	150.9630336348271	0	0	0
416	1	1	-8.074178068627145	47.087833265260365	151.29684049406086	0	0	0
417	1	1	-8.169168398846288	47.26766963190652	152.27593993660813	0	0	0
418	1	1	-8.264158729065432	48.20551280530672	152.6097467958419	0	0	0
419	1	1	-8.359149059284576	48.385349171952875	153.58884623838915	0	0	0
420	1	1	-8.45413938950372	49.32319234535307	153.9226530976229	0	0	0
421	1	1	-8.549129719722863	49.50302871199923	154.90175254017018	0	0	0
422	1	1	-8.644120049942007	50.440871885399424	155.23555939940394	0	0	0
423	1	1	-8.73911038016115	50.62070825204558	156.2146588419512	0	0	0
424	1	1	-8.834100710380294	51.55855142544578	156.54846570118497	0	0	0
425	1	1	-8.929091040599438	51.738387792091935	157.52756514373223	0	0	0
426	1	1	-9.024081370818582	52.67623096549213	157.861372002966	0	0	0
427	1	1	-9.119071701037726	52.85606733213829	158.84047144551326	0	0	0
428	1	1	-9.21406203125687	53.793910505538484	159.17427830474702	0	0	0
429	1	1	-9.309052361476013	53.97374687218464	160.1533777472943	0	0	0
430	1	1	-9.404042691695157	54.91159004558484	160.48718460652805	0	0	0
431	1	1	-9.4990330219143	55.091426412230994	161.4662840490753	0	0	0
432	1	1	-9.594023352133444	56.02926958563119	161.80009090830907	0	0	0
433	1	1	-9.689013682352588	56.20910595227735	162.77919035085634	0	0	0
434	1	1	-9.784004012571732	57.146949125677544	163.1129972100901	0	0	0
435	1	1	-9.878994342790875	57.3267854923237	164.09209665263737	0	0	0
436	1	1	-9.973984673010019	58.2646286657239	164.42590351187113	0	0	0
437	1	1	-10.068975003229163	58.444465032370054	165.4050029544184	0	0	0
438	1	1	-10.163965333448306	59.38230820577025	165.73880981365215	0	0	0
439	1	1	-10.25895566366745	59.56214457241641	166.71790925619942	0	0	0
440	1	1	-10.353945993886594	60.499987745816604	167.05171611543318	0	0	0
441	1	1	-10.448936324105738	60.67982411246276	168.03081555798045	0	0	0
442	1	1	-11.4160906073819	60.65048089731228	168.28330628665222	0	0	0
443	1	1	-12.383244890658062	60.498823563227354	168.48729806432678	0	0	0
444	1	1	-13.350399173934225	60.59965695781421	168.72063305715182	0	0	0
445	1	1	-14.317553457210387	60.44799962372929	168.92462483482637	0	0	0
446	1	1	-15.28470774048655	60.548833018316145	169.1579598276514	0	0	0
447	1	1	-16.251862023762712	60.39717568423122	169.36195160532597	0	0	0
448	1	1	-17.219016307038874	60.49800907881808	169.595286598151	0	0	0
449	1	1	-18.186170590315037	60.346351744733155	169.79927837582557	0	0	0
450	1	1	-19.1533248735912	60.44718513932001	170.0326133686506	0	0	0
451	1	1	-20.12047915686736	60.29552780523509	170.23660514632516	0	0	0
452	1	1	-21.087633440143524	60.396361199821946	170.4699401391502	0	0	0
453	1	1	-22.054787723419686	60.24470386573702	170.67393191682476	0	0	0
454	1	1	-23.02194200669585	60.34553726032388	170.9072669096498	0	0	0
455	1	1	-23.98909628997201	60.19387992623896	171.11125868732435	0	0	0
456	1	1	-24.956250573248173	60.294713320825814	171.3445936801494	0	0	0
457	1	1	-25.923404856524336	60.14305598674089	171.54858545782395	0	0	0
458	1	1	-26.890559139800498	60.24388938132775	171.78192045064898	0	0	0
459	1	1	-27.85771342307666	60.092232047242824	171.98591222832354	0	0	0
460	1	1	-28.824867706352823	60.19306544182968	172.21924722114858	0	0	0