bb480nuc3bl120bn4d30tot1200

1201 atoms
1200 bonds
1208 angles

1 atom types
1 bond types
1 angle types

-1000 1000 xlo xhi
-1000 1000 ylo yhi
-1000 1000 zlo zhi

Masses

1 1

Atoms

1	1	1	0.0	0.0	0.0	0	0	0
2	1	1	0.0	0.0	1.0	0	0	0
3	1	1	0.0	-0.49999999999999994	1.8660254037844388	0	0	0
4	1	1	0.0	0.0	2.7320508075688776	0	0	0
5	1	1	0.0	-0.49999999999999994	3.5980762113533165	0	0	0
6	1	1	0.0	0.0	4.464101615137755	0	0	0
7	1	1	0.0	-0.49999999999999994	5.330127018922194	0	0	0
8	1	1	0.0	0.0	6.196152422706632	0	0	0
9	1	1	0.0	-0.49999999999999994	7.06217782649107	0	0	0
10	1	1	0.0	0.0	7.928203230275509	0	0	0
11	1	1	0.0	-0.49999999999999994	8.794228634059948	0	0	0
12	1	1	0.0	0.0	9.660254037844387	0	0	0
13	1	1	0.0	-0.49999999999999994	10.526279441628827	0	0	0
14	1	1	0.0	0.0	11.392304845413266	0	0	0
15	1	1	0.0	-0.49999999999999994	12.258330249197705	0	0	0
16	1	1	0.0	0.0	13.124355652982144	0	0	0
17	1	1	0.0	-0.49999999999999994	13.990381056766584	0	0	0
18	1	1	0.0	0.0	14.856406460551023	0	0	0
19	1	1	0.0	-0.49999999999999994	15.722431864335462	0	0	0
20	1	1	0.0	0.0	16.5884572681199	0	0	0
21	1	1	0.0	-0.49999999999999994	17.454482671904337	0	0	0
22	1	1	0.0	0.0	18.320508075688775	0	0	0
23	1	1	0.0	-0.49999999999999994	19.186533479473212	0	0	0
24	1	1	0.0	0.0	20.05255888325765	0	0	0
25	1	1	0.0	-0.49999999999999994	20.918584287042087	0	0	0
26	1	1	0.0	0.0	21.784609690826525	0	0	0
27	1	1	0.0	-0.49999999999999994	22.650635094610962	0	0	0
28	1	1	0.0	0.0	23.5166604983954	0	0	0
29	1	1	0.0	-0.49999999999999994	24.382685902179837	0	0	0
30	1	1	0.0	0.0	25.248711305964274	0	0	0
31	1	1	0.0	-0.49999999999999994	26.114736709748712	0	0	0
32	1	1	0.0	0.0	26.98076211353315	0	0	0
33	1	1	0.0	-0.49999999999999994	27.846787517317587	0	0	0
34	1	1	0.0	0.0	28.712812921102024	0	0	0
35	1	1	0.0	-0.49999999999999994	29.578838324886462	0	0	0
36	1	1	0.0	0.0	30.4448637286709	0	0	0
37	1	1	0.0	-0.49999999999999994	31.310889132455337	0	0	0
38	1	1	0.0	0.0	32.17691453623978	0	0	0
39	1	1	0.0	-0.49999999999999994	33.04293994002422	0	0	0
40	1	1	0.0	0.0	33.90896534380866	0	0	0
41	1	1	0.0	-0.49999999999999994	34.7749907475931	0	0	0
42	1	1	0.0	0.0	35.64101615137754	0	0	0
43	1	1	0.0	-0.49999999999999994	36.50704155516198	0	0	0
44	1	1	0.0	0.0	37.373066958946424	0	0	0
45	1	1	0.0	-0.49999999999999994	38.239092362730865	0	0	0
46	1	1	0.0	0.0	39.105117766515306	0	0	0
47	1	1	0.0	-0.49999999999999994	39.97114317029975	0	0	0
48	1	1	0.0	0.0	40.83716857408419	0	0	0
49	1	1	0.0	-0.49999999999999994	41.70319397786863	0	0	0
50	1	1	0.0	0.0	42.56921938165307	0	0	0
51	1	1	0.0	-0.49999999999999994	43.43524478543751	0	0	0
52	1	1	0.0	0.0	44.30127018922195	0	0	0
53	1	1	0.0	-0.49999999999999994	45.16729559300639	0	0	0
54	1	1	0.0	0.0	46.033320996790835	0	0	0
55	1	1	0.0	-0.49999999999999994	46.899346400575276	0	0	0
56	1	1	0.0	0.0	47.76537180435972	0	0	0
57	1	1	0.0	-0.49999999999999994	48.63139720814416	0	0	0
58	1	1	0.0	0.0	49.4974226119286	0	0	0
59	1	1	0.0	-0.49999999999999994	50.36344801571304	0	0	0
60	1	1	0.0	0.0	51.22947341949748	0	0	0
61	1	1	0.0	-0.49999999999999994	52.09549882328192	0	0	0
62	1	1	0.0	0.0	52.96152422706636	0	0	0
63	1	1	0.0	-0.49999999999999994	53.827549630850804	0	0	0
64	1	1	0.0	0.0	54.693575034635245	0	0	0
65	1	1	0.0	-0.49999999999999994	55.559600438419686	0	0	0
66	1	1	0.0	0.0	56.42562584220413	0	0	0
67	1	1	0.0	-0.49999999999999994	57.29165124598857	0	0	0
68	1	1	0.0	0.0	58.15767664977301	0	0	0
69	1	1	0.0	-0.49999999999999994	59.02370205355745	0	0	0
70	1	1	0.0	0.0	59.88972745734189	0	0	0
71	1	1	0.0	-0.49999999999999994	60.75575286112633	0	0	0
72	1	1	0.0	0.0	61.62177826491077	0	0	0
73	1	1	0.0	-0.49999999999999994	62.487803668695214	0	0	0
74	1	1	0.0	0.0	63.353829072479655	0	0	0
75	1	1	0.0	-0.49999999999999994	64.21985447626409	0	0	0
76	1	1	0.0	0.0	65.08587988004852	0	0	0
77	1	1	0.0	-0.49999999999999994	65.95190528383296	0	0	0
78	1	1	0.0	0.0	66.81793068761739	0	0	0
79	1	1	0.0	-0.49999999999999994	67.68395609140183	0	0	0
80	1	1	0.0	0.0	68.54998149518626	0	0	0
81	1	1	0.0	-0.49999999999999994	69.41600689897069	0	0	0
82	1	1	0.0	0.0	70.28203230275513	0	0	0
83	1	1	0.0	-0.49999999999999994	71.14805770653956	0	0	0
84	1	1	0.0	0.0	72.014083110324	0	0	0
85	1	1	0.0	-0.49999999999999994	72.88010851410843	0	0	0
86	1	1	0.0	0.0	73.74613391789286	0	0	0
87	1	1	0.0	-0.49999999999999994	74.6121593216773	0	0	0
88	1	1	0.0	0.0	75.47818472546173	0	0	0
89	1	1	0.0	-0.49999999999999994	76.34421012924616	0	0	0
90	1	1	0.0	0.0	77.2102355330306	0	0	0
91	1	1	0.0	-0.49999999999999994	78.07626093681503	0	0	0
92	1	1	0.0	0.0	78.94228634059947	0	0	0
93	1	1	0.0	-0.49999999999999994	79.8083117443839	0	0	0
94	1	1	0.0	0.0	80.67433714816833	0	0	0
95	1	1	0.0	-0.49999999999999994	81.54036255195277	0	0	0
96	1	1	0.0	0.0	82.4063879557372	0	0	0
97	1	1	0.0	-0.49999999999999994	83.27241335952164	0	0	0
98	1	1	0.0	0.0	84.13843876330607	0	0	0
99	1	1	0.0	-0.49999999999999994	85.0044641670905	0	0	0
100	1	1	0.0	0.0	85.87048957087494	0	0	0
101	1	1	0.0	-0.49999999999999994	86.73651497465937	0	0	0
102	1	1	0.0	0.0	87.6025403784438	0	0	0
103	1	1	0.0	-0.49999999999999994	88.46856578222824	0	0	0
104	1	1	0.0	0.0	89.33459118601267	0	0	0
105	1	1	0.0	-0.49999999999999994	90.20061658979711	0	0	0
106	1	1	0.0	0.0	91.06664199358154	0	0	0
107	1	1	0.0	-0.49999999999999994	91.93266739736598	0	0	0
108	1	1	0.0	0.0	92.79869280115041	0	0	0
109	1	1	0.0	-0.49999999999999994	93.66471820493484	0	0	0
110	1	1	0.0	0.0	94.53074360871928	0	0	0
111	1	1	0.0	-0.49999999999999994	95.39676901250371	0	0	0
112	1	1	0.0	0.0	96.26279441628814	0	0	0
113	1	1	0.0	-0.49999999999999994	97.12881982007258	0	0	0
114	1	1	0.0	0.0	97.99484522385701	0	0	0
115	1	1	0.0	-0.49999999999999994	98.86087062764145	0	0	0
116	1	1	0.0	0.0	99.72689603142588	0	0	0
117	1	1	0.0	-0.49999999999999994	100.59292143521031	0	0	0
118	1	1	0.0	0.0	101.45894683899475	0	0	0
119	1	1	0.0	-0.49999999999999994	102.32497224277918	0	0	0
120	1	1	0.0	0.0	103.19099764656362	0	0	0
121	1	1	0.0	-0.49999999999999994	104.05702305034805	0	0	0
122	1	1	0.34086824043073805	0.09420521410331667	104.7855345507364	0	0	0
123	1	1	0.6817364808614774	0.244546274383789	105.71354662407349	0	0	0
124	1	1	1.022604721292217	1.123398835052608	106.04735348330725	0	0	0
125	1	1	1.3634729617229564	1.2737398953330805	106.97536555664433	0	0	0
126	1	1	1.7043412021536959	2.1525924560018996	107.3091724158781	0	0	0
127	1	1	2.045209442584435	2.302933516282372	108.23718448921518	0	0	0
128	1	1	2.3860776830151744	3.181786076951191	108.57099134844894	0	0	0
129	1	1	2.7269459234459137	3.332127137231663	109.49900342178603	0	0	0
130	1	1	3.067814163876653	4.210979697900482	109.83281028101979	0	0	0
131	1	1	3.408682404307392	4.3613207581809545	110.76082235435688	0	0	0
132	1	1	3.7495506447381315	5.240173318849774	111.09462921359064	0	0	0
133	1	1	4.090418885168871	5.390514379130246	112.02264128692772	0	0	0
134	1	1	4.431287125599611	6.269366939799065	112.35644814616148	0	0	0
135	1	1	4.772155366030351	6.419708000079537	113.28446021949857	0	0	0
136	1	1	5.11302360646109	7.298560560748356	113.61826707873233	0	0	0
137	1	1	5.45389184689183	7.448901621028829	114.54627915206942	0	0	0
138	1	1	5.79476008732257	8.327754181697648	114.88008601130318	0	0	0
139	1	1	6.1356283277533095	8.47809524197812	115.80809808464026	0	0	0
140	1	1	6.476496568184049	9.356947802646939	116.14190494387402	0	0	0
141	1	1	6.817364808614789	9.507288862927412	117.06991701721111	0	0	0
142	1	1	7.158233049045529	10.386141423596232	117.40372387644487	0	0	0
143	1	1	7.499101289476268	10.536482483876705	118.33173594978196	0	0	0
144	1	1	7.839969529907008	11.415335044545525	118.66554280901572	0	0	0
145	1	1	8.180837770337748	11.565676104825998	119.5935548823528	0	0	0
146	1	1	8.521706010768487	12.444528665494818	119.92736174158657	0	0	0
147	1	1	8.862574251199225	12.594869725775292	120.85537381492365	0	0	0
148	1	1	9.203442491629964	13.473722286444112	121.18918067415741	0	0	0
149	1	1	9.544310732060703	13.624063346724585	122.1171927474945	0	0	0
150	1	1	9.885178972491442	14.502915907393405	122.45099960672826	0	0	0
151	1	1	10.22604721292218	14.653256967673878	123.37901168006535	0	0	0
152	1	1	10.56691545335292	15.532109528342698	123.7128185392991	0	0	0
153	1	1	10.907783693783658	15.68245058862317	124.6408306126362	0	0	0
154	1	1	11.248651934214397	16.56130314929199	124.97463747186995	0	0	0
155	1	1	11.589520174645136	16.711644209572462	125.90264954520704	0	0	0
156	1	1	11.930388415075875	17.59049677024128	126.2364564044408	0	0	0
157	1	1	12.271256655506614	17.740837830521752	127.16446847777789	0	0	0
158	1	1	12.612124895937352	18.61969039119057	127.49827533701165	0	0	0
159	1	1	12.952993136368091	18.77003145147104	128.42628741034872	0	0	0
160	1	1	13.29386137679883	19.64888401213986	128.76009426958248	0	0	0
161	1	1	13.634729617229569	19.79922507242033	129.68810634291955	0	0	0
162	1	1	13.975597857660308	20.67807763308915	130.0219132021533	0	0	0
163	1	1	14.316466098091047	20.82841869336962	130.9499252754904	0	0	0
164	1	1	14.657334338521785	21.70727125403844	131.28373213472415	0	0	0
165	1	1	14.998202578952524	21.85761231431891	132.21174420806122	0	0	0
166	1	1	15.339070819383263	22.73646487498773	132.54555106729498	0	0	0
167	1	1	15.679939059814002	22.8868059352682	133.47356314063205	0	0	0
168	1	1	16.02080730024474	23.765658495937018	133.8073699998658	0	0	0
169	1	1	16.36167554067548	23.91599955621749	134.73538207320289	0	0	0
170	1	1	16.702543781106222	24.794852116886307	135.06918893243665	0	0	0
171	1	1	17.043412021536962	24.94519317716678	135.99720100577372	0	0	0
172	1	1	17.384280261967703	25.824045737835597	136.33100786500748	0	0	0
173	1	1	17.725148502398444	25.97438679811607	137.25901993834455	0	0	0
174	1	1	18.066016742829184	26.853239358784887	137.5928267975783	0	0	0
175	1	1	18.406884983259925	27.003580419065358	138.52083887091538	0	0	0
176	1	1	18.747753223690665	27.882432979734176	138.85464573014914	0	0	0
177	1	1	19.088621464121406	28.032774040014647	139.78265780348622	0	0	0
178	1	1	19.429489704552147	28.911626600683466	140.11646466271998	0	0	0
179	1	1	19.770357944982887	29.061967660963937	141.04447673605705	0	0	0
180	1	1	20.111226185413628	29.940820221632755	141.3782835952908	0	0	0
181	1	1	20.45209442584437	30.091161281913227	142.30629566862788	0	0	0
182	1	1	20.79296266627511	30.970013842582045	142.64010252786164	0	0	0
183	1	1	21.13383090670585	31.120354902862516	143.56811460119872	0	0	0
184	1	1	21.47469914713659	31.999207463531334	143.90192146043248	0	0	0
185	1	1	21.81556738756733	32.14954852381181	144.82993353376955	0	0	0
186	1	1	22.15643562799807	33.02840108448063	145.1637403930033	0	0	0
187	1	1	22.497303868428812	33.1787421447611	146.09175246634038	0	0	0
188	1	1	22.838172108859553	34.05759470542992	146.42555932557414	0	0	0
189	1	1	23.179040349290293	34.207935765710396	147.3535713989112	0	0	0
190	1	1	23.519908589721034	35.086788326379214	147.68737825814497	0	0	0
191	1	1	23.860776830151774	35.23712938665969	148.61539033148205	0	0	0
192	1	1	24.201645070582515	36.11598194732851	148.9491971907158	0	0	0
193	1	1	24.542513311013256	36.26632300760898	149.87720926405288	0	0	0
194	1	1	24.883381551443996	37.1451755682778	150.21101612328664	0	0	0
195	1	1	25.224249791874737	37.295516628558275	151.1390281966237	0	0	0
196	1	1	25.565118032305477	38.17436918922709	151.47283505585747	0	0	0
197	1	1	25.905986272736218	38.32471024950757	152.40084712919455	0	0	0
198	1	1	26.24685451316696	39.203562810176386	152.7346539884283	0	0	0
199	1	1	26.5877227535977	39.35390387045686	153.66266606176538	0	0	0
200	1	1	26.92859099402844	40.23275643112568	153.99647292099914	0	0	0
201	1	1	27.26945923445918	40.383097491406154	154.9244849943362	0	0	0
202	1	1	27.61032747488992	41.26195005207497	155.25829185356997	0	0	0
203	1	1	27.95119571532066	41.41229111235545	156.18630392690704	0	0	0
204	1	1	28.292063955751402	42.291143673024266	156.5201107861408	0	0	0
205	1	1	28.632932196182143	42.44148473330474	157.44812285947788	0	0	0
206	1	1	28.973800436612883	43.32033729397356	157.78192971871164	0	0	0
207	1	1	29.314668677043624	43.470678354254034	158.7099417920487	0	0	0
208	1	1	29.655536917474365	44.34953091492285	159.04374865128247	0	0	0
209	1	1	29.996405157905105	44.49987197520333	159.97176072461954	0	0	0
210	1	1	30.337273398335846	45.378724535872145	160.3055675838533	0	0	0
211	1	1	30.678141638766586	45.52906559615262	161.23357965719038	0	0	0
212	1	1	31.019009879197327	46.40791815682144	161.56738651642414	0	0	0
213	1	1	31.359878119628068	46.55825921710191	162.4953985897612	0	0	0
214	1	1	31.700746360058808	47.43711177777073	162.82920544899497	0	0	0
215	1	1	32.041614600489545	47.587452838051206	163.75721752233204	0	0	0
216	1	1	32.38248284092028	48.466305398720024	164.0910243815658	0	0	0
217	1	1	32.72335108135102	48.6166464590005	165.01903645490287	0	0	0
218	1	1	33.064219321781756	49.49549901966932	165.35284331413663	0	0	0
219	1	1	33.40508756221249	49.64584007994979	166.2808553874737	0	0	0
220	1	1	33.74595580264323	50.52469264061861	166.61466224670747	0	0	0
221	1	1	34.08682404307397	50.675033700899085	167.54267432004454	0	0	0
222	1	1	34.427692283504705	51.553886261567904	167.8764811792783	0	0	0
223	1	1	34.76856052393544	51.70422732184838	168.80449325261537	0	0	0
224	1	1	35.10942876436618	52.5830798825172	169.13830011184913	0	0	0
225	1	1	35.450297004796916	52.73342094279767	170.0663121851862	0	0	0
226	1	1	35.79116524522765	53.61227350346649	170.40011904441997	0	0	0
227	1	1	36.13203348565839	53.762614563746965	171.32813111775704	0	0	0
228	1	1	36.47290172608913	54.64146712441578	171.6619379769908	0	0	0
229	1	1	36.813769966519864	54.79180818469626	172.58995005032787	0	0	0
230	1	1	37.1546382069506	55.670660745365076	172.92375690956163	0	0	0
231	1	1	37.49550644738134	55.82100180564555	173.8517689828987	0	0	0
232	1	1	37.836374687812075	56.69985436631437	174.18557584213247	0	0	0
233	1	1	38.17724292824281	56.850195426594844	175.11358791546954	0	0	0
234	1	1	38.51811116867355	57.72904798726366	175.4473947747033	0	0	0
235	1	1	38.858979409104286	57.87938904754414	176.37540684804037	0	0	0
236	1	1	39.19984764953502	58.758241608212955	176.70921370727413	0	0	0
237	1	1	39.54071588996576	58.90858266849343	177.6372257806112	0	0	0
238	1	1	39.8815841303965	59.78743522916225	177.97103263984496	0	0	0
239	1	1	40.222452370827234	59.93777628944272	178.89904471318204	0	0	0
240	1	1	40.56332061125797	60.81662885011154	179.2328515724158	0	0	0
241	1	1	40.90418885168871	60.96696991039202	180.16086364575287	0	0	0
242	1	1	0.5906745235048374	-1.30310893180003	103.97879485245662	0	0	0
243	1	1	1.181349047009677	-1.959507569799328	103.50949277989035	0	0	0
244	1	1	1.7720235705145166	-2.694134405690056	103.84329963912411	0	0	0
245	1	1	2.3626980940193563	-3.350533043689354	103.37399756655785	0	0	0
246	1	1	2.953372617524196	-4.085159879580082	103.70780442579161	0	0	0
247	1	1	3.5440471410290355	-4.74155851757938	103.23850235322534	0	0	0
248	1	1	4.134721664533875	-5.4761853534701075	103.5723092124591	0	0	0
249	1	1	4.725396188038714	-6.132583991469406	103.10300713989284	0	0	0
250	1	1	5.316070711543554	-6.867210827360133	103.4368139991266	0	0	0
251	1	1	5.906745235048393	-7.523609465359431	102.96751192656033	0	0	0
252	1	1	6.4974197585532325	-8.25823630125016	103.3013187857941	0	0	0
253	1	1	7.088094282058072	-8.914634939249456	102.83201671322783	0	0	0
254	1	1	7.678768805562911	-9.649261775140184	103.16582357246159	0	0	0
255	1	1	8.269443329067752	-10.305660413139481	102.69652149989533	0	0	0
256	1	1	8.860117852572591	-11.040287249030209	103.03032835912909	0	0	0
257	1	1	9.45079237607743	-11.696685887029506	102.56102628656282	0	0	0
258	1	1	10.04146689958227	-12.431312722920234	102.89483314579658	0	0	0
259	1	1	10.63214142308711	-13.087711360919531	102.42553107323032	0	0	0
260	1	1	11.222815946591949	-13.822338196810259	102.75933793246408	0	0	0
261	1	1	11.813490470096788	-14.478736834809556	102.29003585989781	0	0	0
262	1	1	12.404164993601627	-15.213363670700284	102.62384271913157	0	0	0
263	1	1	12.994839517106467	-15.869762308699581	102.15454064656531	0	0	0
264	1	1	13.585514040611306	-16.604389144590307	102.48834750579907	0	0	0
265	1	1	14.176188564116146	-17.260787782589606	102.0190454332328	0	0	0
266	1	1	14.766863087620985	-17.995414618480332	102.35285229246657	0	0	0
267	1	1	15.357537611125824	-18.65181325647963	101.8835502199003	0	0	0
268	1	1	15.948212134630664	-19.386440092370357	102.21735707913406	0	0	0
269	1	1	16.538886658135503	-20.042838730369656	101.7480550065678	0	0	0
270	1	1	17.129561181640344	-20.777465566260382	102.08186186580156	0	0	0
271	1	1	17.720235705145186	-21.43386420425968	101.61255979323529	0	0	0
272	1	1	18.310910228650027	-22.168491040150407	101.94636665246905	0	0	0
273	1	1	18.901584752154868	-22.824889678149706	101.47706457990279	0	0	0
274	1	1	19.49225927565971	-23.559516514040432	101.81087143913655	0	0	0
275	1	1	20.08293379916455	-24.21591515203973	101.34156936657028	0	0	0
276	1	1	20.67360832266939	-24.950541987930457	101.67537622580404	0	0	0
277	1	1	21.264282846174233	-25.606940625929756	101.20607415323778	0	0	0
278	1	1	21.854957369679074	-26.341567461820482	101.53988101247154	0	0	0
279	1	1	22.445631893183915	-26.99796609981978	101.07057893990527	0	0	0
280	1	1	23.036306416688756	-27.732592935710507	101.40438579913904	0	0	0
281	1	1	23.626980940193597	-28.388991573709806	100.93508372657277	0	0	0
282	1	1	24.21765546369844	-29.12361840960053	101.26889058580653	0	0	0
283	1	1	24.80832998720328	-29.78001704759983	100.79958851324027	0	0	0
284	1	1	25.39900451070812	-30.514643883490557	101.13339537247403	0	0	0
285	1	1	25.989679034212962	-31.171042521489856	100.66409329990776	0	0	0
286	1	1	26.580353557717803	-31.90566935738058	100.99790015914152	0	0	0
287	1	1	27.171028081222644	-32.56206799537988	100.52859808657526	0	0	0
288	1	1	27.761702604727486	-33.29669483127061	100.86240494580902	0	0	0
289	1	1	28.352377128232327	-33.9530934692699	100.39310287324275	0	0	0
290	1	1	28.943051651737168	-34.68772030516063	100.72690973247651	0	0	0
291	1	1	29.53372617524201	-35.34411894315993	100.25760765991025	0	0	0
292	1	1	30.12440069874685	-36.07874577905066	100.59141451914401	0	0	0
293	1	1	30.71507522225169	-36.73514441704995	100.12211244657775	0	0	0
294	1	1	31.305749745756533	-37.46977125294068	100.4559193058115	0	0	0
295	1	1	31.896424269261374	-38.12616989093998	99.98661723324524	0	0	0
296	1	1	32.48709879276621	-38.860796726830706	100.320424092479	0	0	0
297	1	1	33.07777331627105	-39.51719536483	99.85112201991274	0	0	0
298	1	1	33.66844783977589	-40.25182220072073	100.1849288791465	0	0	0
299	1	1	34.259122363280724	-40.90822083872003	99.71562680658023	0	0	0
300	1	1	34.84979688678556	-41.642847674610756	100.04943366581399	0	0	0
301	1	1	35.4404714102904	-42.29924631261005	99.58013159324773	0	0	0
302	1	1	36.03114593379524	-43.03387314850078	99.91393845248149	0	0	0
303	1	1	36.621820457300075	-43.69027178650008	99.44463637991522	0	0	0
304	1	1	37.21249498080491	-44.424898622390806	99.77844323914898	0	0	0
305	1	1	37.80316950430975	-45.0812972603901	99.30914116658272	0	0	0
306	1	1	38.39384402781459	-45.81592409628083	99.64294802581648	0	0	0
307	1	1	38.984518551319425	-46.47232273428013	99.17364595325022	0	0	0
308	1	1	39.57519307482426	-47.206949570170856	99.50745281248398	0	0	0
309	1	1	40.1658675983291	-47.86334820817015	99.03815073991771	0	0	0
310	1	1	40.75654212183394	-48.59797504406088	99.37195759915147	0	0	0
311	1	1	41.347216645338776	-49.25437368206018	98.9026555265852	0	0	0
312	1	1	41.93789116884361	-49.989000517950906	99.23646238581897	0	0	0
313	1	1	42.52856569234845	-50.6453991559502	98.7671603132527	0	0	0
314	1	1	43.11924021585329	-51.38002599184093	99.10096717248646	0	0	0
315	1	1	43.709914739358126	-52.036424629840226	98.6316650999202	0	0	0
316	1	1	44.300589262862964	-52.771051465730956	98.96547195915396	0	0	0
317	1	1	44.8912637863678	-53.42745010373025	98.4961698865877	0	0	0
318	1	1	45.48193830987264	-54.16207693962098	98.82997674582145	0	0	0
319	1	1	46.07261283337748	-54.818475577620276	98.36067467325519	0	0	0
320	1	1	46.663287356882314	-55.553102413511006	98.69448153248895	0	0	0
321	1	1	47.25396188038715	-56.2095010515103	98.22517945992269	0	0	0
322	1	1	47.84463640389199	-56.94412788740103	98.55898631915645	0	0	0
323	1	1	48.43531092739683	-57.600526525400326	98.08968424659018	0	0	0
324	1	1	49.025985450901665	-58.335153361291056	98.42349110582394	0	0	0
325	1	1	49.6166599744065	-58.99155199929035	97.95418903325768	0	0	0
326	1	1	50.20733449791134	-59.72617883518108	98.28799589249144	0	0	0
327	1	1	50.79800902141618	-60.382577473180376	97.81869381992517	0	0	0
328	1	1	51.388683544921015	-61.117204309071106	98.15250067915893	0	0	0
329	1	1	51.97935806842585	-61.7736029470704	97.68319860659267	0	0	0
330	1	1	52.57003259193069	-62.50822978296113	98.01700546582643	0	0	0
331	1	1	53.16070711543553	-63.164628420960426	97.54770339326016	0	0	0
332	1	1	53.751381638940366	-63.899255256851156	97.88151025249392	0	0	0
333	1	1	54.3420561624452	-64.55565389485045	97.41220817992766	0	0	0
334	1	1	54.93273068595004	-65.29028073074117	97.74601503916142	0	0	0
335	1	1	55.52340520945488	-65.94667936874048	97.27671296659516	0	0	0
336	1	1	56.114079732959716	-66.6813062046312	97.61051982582892	0	0	0
337	1	1	56.704754256464554	-67.3377048426305	97.14121775326265	0	0	0
338	1	1	57.29542877996939	-68.07233167852122	97.47502461249641	0	0	0
339	1	1	57.88610330347423	-68.72873031652053	97.00572253993015	0	0	0
340	1	1	58.47677782697907	-69.46335715241125	97.33952939916391	0	0	0
341	1	1	59.067452350483904	-70.11975579041055	96.87022732659764	0	0	0
342	1	1	59.65812687398874	-70.85438262630127	97.2040341858314	0	0	0
343	1	1	60.24880139749358	-71.51078126430058	96.73473211326514	0	0	0
344	1	1	60.83947592099842	-72.2454081001913	97.0685389724989	0	0	0
345	1	1	61.430150444503255	-72.9018067381906	96.59923689993263	0	0	0
346	1	1	62.02082496800809	-73.63643357408132	96.9330437591664	0	0	0
347	1	1	62.61149949151293	-74.29283221208063	96.46374168660013	0	0	0
348	1	1	63.20217401501777	-75.02745904797135	96.79754854583389	0	0	0
349	1	1	63.792848538522605	-75.68385768597065	96.32824647326763	0	0	0
350	1	1	64.38352306202745	-76.41848452186137	96.66205333250139	0	0	0
351	1	1	64.9741975855323	-77.07488315986068	96.19275125993512	0	0	0
352	1	1	65.56487210903714	-77.8095099957514	96.52655811916888	0	0	0
353	1	1	66.15554663254198	-78.4659086337507	96.05725604660262	0	0	0
354	1	1	66.74622115604683	-79.20053546964142	96.39106290583638	0	0	0
355	1	1	67.33689567955167	-79.85693410764073	95.92176083327011	0	0	0
356	1	1	67.92757020305652	-80.59156094353145	96.25556769250387	0	0	0
357	1	1	68.51824472656136	-81.24795958153075	95.78626561993761	0	0	0
358	1	1	69.10891925006621	-81.98258641742147	96.12007247917137	0	0	0
359	1	1	69.69959377357105	-82.63898505542078	95.6507704066051	0	0	0
360	1	1	70.2902682970759	-83.3736118913115	95.98457726583887	0	0	0
361	1	1	70.88094282058074	-84.0300105293108	95.5152751932726	0	0	0
362	1	1	-0.9315427639355663	-0.7918065711539428	104.27399540801294	0	0	0
363	1	1	-1.863085527871136	-1.153004653596931	104.31599569609276	0	0	0
364	1	1	-2.794628291806706	-1.2972303783750365	104.64980255532652	0	0	0
365	1	1	-3.7261710557422756	-1.6584284608180246	104.69180284340634	0	0	0
366	1	1	-4.657713819677845	-1.8026541855961302	105.0256097026401	0	0	0
367	1	1	-5.589256583613414	-2.1638522680391183	105.06760999071992	0	0	0
368	1	1	-6.520799347548984	-2.308077992817224	105.40141684995368	0	0	0
369	1	1	-7.452342111484553	-2.6692760752602123	105.4434171380335	0	0	0
370	1	1	-8.383884875420122	-2.813501800038318	105.77722399726726	0	0	0
371	1	1	-9.315427639355692	-3.174699882481306	105.81922428534708	0	0	0
372	1	1	-10.246970403291261	-3.3189256072594118	106.15303114458084	0	0	0
373	1	1	-11.17851316722683	-3.6801236897024	106.19503143266066	0	0	0
374	1	1	-12.1100559311624	-3.8243494144805057	106.52883829189442	0	0	0
375	1	1	-13.041598695097969	-4.185547496923494	106.57083857997424	0	0	0
376	1	1	-13.973141459033538	-4.3297732217016	106.904645439208	0	0	0
377	1	1	-14.904684222969108	-4.690971304144588	106.94664572728782	0	0	0
378	1	1	-15.836226986904677	-4.8351970289226935	107.28045258652158	0	0	0
379	1	1	-16.767769750840248	-5.196395111365682	107.3224528746014	0	0	0
380	1	1	-17.69931251477582	-5.3406208361437875	107.65625973383516	0	0	0
381	1	1	-18.63085527871139	-5.701818918586776	107.69826002191498	0	0	0
382	1	1	-19.56239804264696	-5.846044643364881	108.03206688114874	0	0	0
383	1	1	-20.493940806582533	-6.20724272580787	108.07406716922856	0	0	0
384	1	1	-21.425483570518104	-6.351468450585975	108.40787402846232	0	0	0
385	1	1	-22.357026334453675	-6.712666533028964	108.44987431654214	0	0	0
386	1	1	-23.288569098389246	-6.856892257807069	108.7836811757759	0	0	0
387	1	1	-24.220111862324817	-7.218090340250058	108.82568146385572	0	0	0
388	1	1	-25.151654626260388	-7.362316065028163	109.15948832308948	0	0	0
389	1	1	-26.08319739019596	-7.7235141474711515	109.2014886111693	0	0	0
390	1	1	-27.01474015413153	-7.867739872249257	109.53529547040306	0	0	0
391	1	1	-27.9462829180671	-8.228937954692245	109.57729575848288	0	0	0
392	1	1	-28.877825682002673	-8.373163679470352	109.91110261771664	0	0	0
393	1	1	-29.809368445938244	-8.73436176191334	109.95310290579646	0	0	0
394	1	1	-30.740911209873815	-8.878587486691444	110.28690976503022	0	0	0
395	1	1	-31.672453973809386	-9.239785569134431	110.32891005311004	0	0	0
396	1	1	-32.60399673774496	-9.384011293912536	110.6627169123438	0	0	0
397	1	1	-33.535539501680525	-9.745209376355524	110.70471720042362	0	0	0
398	1	1	-34.46708226561609	-9.889435101133628	111.03852405965738	0	0	0
399	1	1	-35.39862502955166	-10.250633183576616	111.0805243477372	0	0	0
400	1	1	-36.33016779348723	-10.39485890835472	111.41433120697096	0	0	0
401	1	1	-37.261710557422795	-10.756056990797708	111.45633149505078	0	0	0
402	1	1	-38.19325332135836	-10.900282715575813	111.79013835428454	0	0	0
403	1	1	-39.12479608529393	-11.2614807980188	111.83213864236436	0	0	0
404	1	1	-40.0563388492295	-11.405706522796905	112.16594550159812	0	0	0
405	1	1	-40.987881613165065	-11.766904605239892	112.20794578967794	0	0	0
406	1	1	-41.91942437710063	-11.911130330017997	112.5417526489117	0	0	0
407	1	1	-42.8509671410362	-12.272328412460984	112.58375293699152	0	0	0
408	1	1	-43.78250990497177	-12.416554137239089	112.91755979622528	0	0	0
409	1	1	-44.714052668907335	-12.777752219682077	112.9595600843051	0	0	0
410	1	1	-45.6455954328429	-12.921977944460181	113.29336694353886	0	0	0
411	1	1	-46.57713819677847	-13.283176026903169	113.33536723161868	0	0	0
412	1	1	-47.50868096071404	-13.427401751681273	113.66917409085244	0	0	0
413	1	1	-48.440223724649606	-13.78859983412426	113.71117437893226	0	0	0
414	1	1	-49.37176648858517	-13.932825558902366	114.04498123816602	0	0	0
415	1	1	-50.30330925252074	-14.294023641345353	114.08698152624584	0	0	0
416	1	1	-51.23485201645631	-14.438249366123458	114.4207883854796	0	0	0
417	1	1	-52.166394780391876	-14.799447448566445	114.46278867355942	0	0	0
418	1	1	-53.09793754432744	-14.94367317334455	114.79659553279318	0	0	0
419	1	1	-54.02948030826301	-15.304871255787537	114.838595820873	0	0	0
420	1	1	-54.96102307219858	-15.449096980565642	115.17240268010676	0	0	0
421	1	1	-55.892565836134146	-15.81029506300863	115.21440296818658	0	0	0
422	1	1	-56.824108600069714	-15.954520787786734	115.54820982742034	0	0	0
423	1	1	-57.75565136400528	-16.315718870229723	115.59021011550016	0	0	0
424	1	1	-58.68719412794085	-16.45994459500783	115.92401697473392	0	0	0
425	1	1	-59.61873689187642	-16.82114267745082	115.96601726281374	0	0	0
426	1	1	-60.550279655811984	-16.965368402228926	116.2998241220475	0	0	0
427	1	1	-61.48182241974755	-17.326566484671915	116.34182441012732	0	0	0
428	1	1	-62.41336518368312	-17.47079220945002	116.67563126936108	0	0	0
429	1	1	-63.34490794761869	-17.83199029189301	116.7176315574409	0	0	0
430	1	1	-64.27645071155426	-17.976216016671117	117.05143841667466	0	0	0
431	1	1	-65.20799347548983	-18.337414099114106	117.09343870475448	0	0	0
432	1	1	-66.1395362394254	-18.481639823892213	117.42724556398824	0	0	0
433	1	1	-67.07107900336096	-18.842837906335202	117.46924585206806	0	0	0
434	1	1	-68.00262176729653	-18.98706363111331	117.80305271130182	0	0	0
435	1	1	-68.9341645312321	-19.348261713556298	117.84505299938164	0	0	0
436	1	1	-69.86570729516767	-19.492487438334404	118.1788598586154	0	0	0
437	1	1	-70.79725005910323	-19.853685520777393	118.22086014669522	0	0	0
438	1	1	-71.7287928230388	-19.9979112455555	118.55466700592898	0	0	0
439	1	1	-72.66033558697437	-20.35910932799849	118.5966672940088	0	0	0
440	1	1	-73.59187835090994	-20.503335052776595	118.93047415324256	0	0	0
441	1	1	-74.5234211148455	-20.864533135219585	118.97247444132238	0	0	0
442	1	1	-75.45496387878107	-21.00875885999769	119.30628130055614	0	0	0
443	1	1	-76.38650664271664	-21.36995694244068	119.34828158863596	0	0	0
444	1	1	-77.31804940665221	-21.514182667218787	119.68208844786972	0	0	0
445	1	1	-78.24959217058777	-21.875380749661776	119.72408873594954	0	0	0
446	1	1	-79.18113493452334	-22.019606474439883	120.0578955951833	0	0	0
447	1	1	-80.11267769845891	-22.38080455688287	120.09989588326312	0	0	0
448	1	1	-81.04422046239448	-22.525030281660978	120.43370274249688	0	0	0
449	1	1	-81.97576322633005	-22.886228364103967	120.4757030305767	0	0	0
450	1	1	-82.90730599026561	-23.030454088882074	120.80950988981046	0	0	0
451	1	1	-83.83884875420118	-23.391652171325063	120.85151017789028	0	0	0
452	1	1	-84.77039151813675	-23.53587789610317	121.18531703712404	0	0	0
453	1	1	-85.70193428207232	-23.89707597854616	121.22731732520386	0	0	0
454	1	1	-86.63347704600788	-24.041301703324265	121.56112418443762	0	0	0
455	1	1	-87.56501980994345	-24.402499785767255	121.60312447251744	0	0	0
456	1	1	-88.49656257387902	-24.54672551054536	121.9369313317512	0	0	0
457	1	1	-89.42810533781459	-24.90792359298835	121.97893161983102	0	0	0
458	1	1	-90.35964810175015	-25.052149317766457	122.31273847906478	0	0	0
459	1	1	-91.29119086568572	-25.413347400209446	122.3547387671446	0	0	0
460	1	1	-92.22273362962129	-25.557573124987552	122.68854562637836	0	0	0
461	1	1	-93.15427639355686	-25.91877120743054	122.73054591445818	0	0	0
462	1	1	-94.08581915749242	-26.062996932208648	123.06435277369194	0	0	0
463	1	1	-95.01736192142799	-26.424195014651637	123.10635306177176	0	0	0