bb80nuc3bl20bn4d30tot200

201 atoms
200 bonds
208 angles

1 atom types
1 bond types
1 angle types

-1000 1000 xlo xhi
-1000 1000 ylo yhi
-1000 1000 zlo zhi

Masses

1 1

Atoms

1	1	1	0.0	0.0	0.0	0	0	0
2	1	1	0.0	0.0	1.0	0	0	0
3	1	1	0.0	-0.49999999999999994	1.8660254037844388	0	0	0
4	1	1	0.0	0.0	2.7320508075688776	0	0	0
5	1	1	0.0	-0.49999999999999994	3.5980762113533165	0	0	0
6	1	1	0.0	0.0	4.464101615137755	0	0	0
7	1	1	0.0	-0.49999999999999994	5.330127018922194	0	0	0
8	1	1	0.0	0.0	6.196152422706632	0	0	0
9	1	1	0.0	-0.49999999999999994	7.06217782649107	0	0	0
10	1	1	0.0	0.0	7.928203230275509	0	0	0
11	1	1	0.0	-0.49999999999999994	8.794228634059948	0	0	0
12	1	1	0.0	0.0	9.660254037844387	0	0	0
13	1	1	0.0	-0.49999999999999994	10.526279441628827	0	0	0
14	1	1	0.0	0.0	11.392304845413266	0	0	0
15	1	1	0.0	-0.49999999999999994	12.258330249197705	0	0	0
16	1	1	0.0	0.0	13.124355652982144	0	0	0
17	1	1	0.0	-0.49999999999999994	13.990381056766584	0	0	0
18	1	1	0.0	0.0	14.856406460551023	0	0	0
19	1	1	0.0	-0.49999999999999994	15.722431864335462	0	0	0
20	1	1	0.0	0.0	16.5884572681199	0	0	0
21	1	1	0.0	-0.49999999999999994	17.454482671904337	0	0	0
22	1	1	-0.6990690692476269	-0.1192661748009764	18.05974640844451	0	0	0
23	1	1	-1.3981381384952547	-0.09217287836868529	18.774287092877305	0	0	0
24	1	1	-2.0972072077428825	0.5401841546037809	19.108093952111076	0	0	0
25	1	1	-2.7962762769905103	0.567277451036072	19.82263463654387	0	0	0
26	1	1	-3.495345346238138	1.1996344840085382	20.156441495777642	0	0	0
27	1	1	-4.194414415485766	1.2267277804408294	20.870982180210436	0	0	0
28	1	1	-4.893483484733394	1.8590848134132956	21.204789039444208	0	0	0
29	1	1	-5.5925525539810215	1.8861781098455868	21.919329723877002	0	0	0
30	1	1	-6.291621623228649	2.518535142818053	22.253136583110773	0	0	0
31	1	1	-6.990690692476277	2.545628439250344	22.967677267543568	0	0	0
32	1	1	-7.689759761723905	3.17798547222281	23.30148412677734	0	0	0
33	1	1	-8.388828830971532	3.2050787686551008	24.016024811210134	0	0	0
34	1	1	-9.08789790021916	3.837435801627567	24.349831670443905	0	0	0
35	1	1	-9.786966969466787	3.864529098059858	25.0643723548767	0	0	0
36	1	1	-10.486036038714415	4.4968861310323245	25.39817921411047	0	0	0
37	1	1	-11.185105107962043	4.5239794274646155	26.112719898543265	0	0	0
38	1	1	-11.88417417720967	5.156336460437082	26.446526757777036	0	0	0
39	1	1	-12.583243246457299	5.183429756869373	27.16106744220983	0	0	0
40	1	1	-13.282312315704926	5.815786789841839	27.494874301443602	0	0	0
41	1	1	-13.981381384952554	5.84288008627413	28.209414985876396	0	0	0
42	1	1	0.8971717894397219	-0.4164202550891179	17.88818442019936	0	0	0
43	1	1	1.7943435788794448	-0.5608889469019811	18.30557102434401	0	0	0
44	1	1	2.691515368319168	-0.2716558904198237	18.639377883577783	0	0	0
45	1	1	3.5886871577588906	-0.4161245822326869	19.056764487722436	0	0	0
46	1	1	4.485858947198613	-0.12689152575052948	19.390571346956207	0	0	0
47	1	1	5.383030736638336	-0.2713602175633927	19.80795795110086	0	0	0
48	1	1	6.2802025260780585	0.017872838918764733	20.14176481033463	0	0	0
49	1	1	7.177374315517781	-0.12659585289409847	20.559151414479285	0	0	0
50	1	1	8.074546104957504	0.16263720358805894	20.892958273713056	0	0	0
51	1	1	8.971717894397226	0.01816851177519574	21.31034487785771	0	0	0
52	1	1	9.868889683836949	0.30740156825735315	21.64415173709148	0	0	0
53	1	1	10.766061473276672	0.16293287644448995	22.061538341236133	0	0	0
54	1	1	11.663233262716394	0.45216593292664736	22.395345200469905	0	0	0
55	1	1	12.560405052156117	0.30769724111378416	22.812731804614558	0	0	0
56	1	1	13.45757684159584	0.5969302975959416	23.14653866384833	0	0	0
57	1	1	14.354748631035562	0.4524616057830784	23.563925267992982	0	0	0
58	1	1	15.251920420475285	0.7416946622652358	23.897732127226753	0	0	0
59	1	1	16.149092209915008	0.5972259704523726	24.315118731371406	0	0	0
60	1	1	17.046263999354732	0.88645902693453	24.648925590605177	0	0	0
61	1	1	17.943435788794456	0.7419903351216668	25.06631219474983	0	0	0
62	1	1	-0.19810272019209108	-1.4650238589605609	17.282772847230966	0	0	0
63	1	1	-0.3962054403841824	-2.214904123741814	16.651555847504174	0	0	0
64	1	1	-0.5943081605762737	-3.136494213196437	16.985362706737945	0	0	0
65	1	1	-0.792410880768365	-3.88637447797769	16.354145707011153	0	0	0
66	1	1	-0.9905136009604563	-4.807964567432313	16.687952566244924	0	0	0
67	1	1	-1.1886163211525476	-5.557844832213566	16.05673556651813	0	0	0
68	1	1	-1.3867190413446389	-6.479434921668188	16.390542425751903	0	0	0
69	1	1	-1.5848217615367302	-7.229315186449441	15.75932542602511	0	0	0
70	1	1	-1.7829244817288215	-8.150905275904064	16.093132285258882	0	0	0
71	1	1	-1.9810272019209128	-8.900785540685316	15.46191528553209	0	0	0
72	1	1	-2.1791299221130043	-9.82237563013994	15.795722144765861	0	0	0
73	1	1	-2.3772326423050956	-10.572255894921192	15.164505145039069	0	0	0
74	1	1	-2.575335362497187	-11.493845984375815	15.49831200427284	0	0	0
75	1	1	-2.773438082689278	-12.243726249157067	14.867095004546048	0	0	0
76	1	1	-2.9715408028813695	-13.16531633861169	15.20090186377982	0	0	0
77	1	1	-3.1696435230734608	-13.915196603392943	14.569684864053027	0	0	0
78	1	1	-3.367746243265552	-14.836786692847566	14.903491723286798	0	0	0
79	1	1	-3.5658489634576434	-15.586666957628818	14.272274723560006	0	0	0
80	1	1	-3.7639516836497346	-16.50825704708344	14.606081582793777	0	0	0
81	1	1	-3.962054403841826	-17.258137311864694	13.974864583066985	0	0	0
82	1	1	-3.259277210224475	-17.96394540823131	14.063966475497262	0	0	0
83	1	1	-2.5565000166071252	-18.619744096096674	13.788226929683841	0	0	0
84	1	1	-1.8537228229897755	-19.18644089153176	14.218295480237037	0	0	0
85	1	1	-1.1509456293724258	-19.842239579397123	13.942555934423616	0	0	0
86	1	1	-0.44816843575507614	-20.40893637483221	14.372624484976813	0	0	0
87	1	1	0.25460875786227355	-21.064735062697572	14.096884939163392	0	0	0
88	1	1	0.9573859514796232	-21.631431858132657	14.526953489716588	0	0	0
89	1	1	1.660163145096973	-22.28723054599802	14.251213943903167	0	0	0
90	1	1	2.3629403387143224	-22.853927341433106	14.681282494456363	0	0	0
91	1	1	3.0657175323316723	-23.50972602929847	14.405542948642942	0	0	0
92	1	1	3.7684947259490222	-24.076422824733555	14.835611499196139	0	0	0
93	1	1	4.471271919566372	-24.73222151259892	14.559871953382718	0	0	0
94	1	1	5.174049113183722	-25.298918308034004	14.989940503935914	0	0	0
95	1	1	5.876826306801072	-25.954716995899368	14.714200958122493	0	0	0
96	1	1	6.579603500418422	-26.521413791334453	15.14426950867569	0	0	0
97	1	1	7.282380694035772	-27.177212479199817	14.868529962862269	0	0	0
98	1	1	7.985157887653122	-27.743909274634902	15.298598513415465	0	0	0
99	1	1	8.68793508127047	-28.399707962500266	15.022858967602044	0	0	0
100	1	1	9.39071227488782	-28.96640475793535	15.45292751815524	0	0	0
101	1	1	10.093489468505169	-29.622203445800714	15.17718797234182	0	0	0
102	1	1	-3.968940967856909	-16.911819402768675	13.036772646700708	0	0	0
103	1	1	-3.9758275318719924	-16.142853327522875	12.397520153270186	0	0	0
104	1	1	-3.9827140958870757	-16.311979188643353	11.411949750743647	0	0	0
105	1	1	-3.989600659902159	-15.543013113397555	10.772697257313125	0	0	0
106	1	1	-3.996487223917242	-15.712138974518032	9.787126854786585	0	0	0
107	1	1	-4.0033737879323255	-14.943172899272234	9.147874361356063	0	0	0
108	1	1	-4.010260351947409	-15.112298760392711	8.162303958829524	0	0	0
109	1	1	-4.017146915962492	-14.343332685146914	7.523051465399002	0	0	0
110	1	1	-4.024033479977575	-14.512458546267391	6.537481062872463	0	0	0
111	1	1	-4.0309200439926585	-13.743492471021593	5.898228569441942	0	0	0
112	1	1	-4.037806608007742	-13.91261833214207	4.912658166915404	0	0	0
113	1	1	-4.044693172022825	-13.143652256896273	4.273405673484882	0	0	0
114	1	1	-4.051579736037908	-13.31277811801675	3.287835270958344	0	0	0
115	1	1	-4.0584663000529915	-12.543812042770952	2.6485827775278223	0	0	0
116	1	1	-4.065352864068075	-12.71293790389143	1.6630123750012837	0	0	0
117	1	1	-4.072239428083158	-11.943971828645632	1.023759881570762	0	0	0
118	1	1	-4.079125992098241	-12.113097689766109	0.03818947904422343	0	0	0
119	1	1	-4.0860125561133245	-11.344131614520311	-0.6010630143862983	0	0	0
120	1	1	-4.092899120128408	-11.513257475640788	-1.5866334169128369	0	0	0
121	1	1	-4.099785684143491	-10.74429140039499	-2.225885910343359	0	0	0
122	1	1	-4.85632917394306	-17.64959265255815	14.191740934481695	0	0	0
123	1	1	-5.7506039440442915	-18.097041097753134	14.183833693940185	0	0	0
124	1	1	-6.6448787141455234	-18.327613191533406	14.567381794092135	0	0	0
125	1	1	-7.539153484246755	-18.77506163672839	14.559474553550626	0	0	0
126	1	1	-8.433428254347987	-19.00563373050866	14.943022653702576	0	0	0
127	1	1	-9.32770302444922	-19.453082175703642	14.935115413161066	0	0	0
128	1	1	-10.221977794550451	-19.683654269483913	15.318663513313016	0	0	0
129	1	1	-11.116252564651683	-20.131102714678896	15.310756272771506	0	0	0
130	1	1	-12.010527334752915	-20.361674808459167	15.694304372923456	0	0	0
131	1	1	-12.904802104854147	-20.80912325365415	15.686397132381947	0	0	0
132	1	1	-13.799076874955379	-21.03969534743442	16.069945232533897	0	0	0
133	1	1	-14.69335164505661	-21.487143792629404	16.062037991992387	0	0	0
134	1	1	-15.587626415157843	-21.717715886409675	16.445586092144335	0	0	0
135	1	1	-16.481901185259073	-22.165164331604657	16.437678851602826	0	0	0
136	1	1	-17.376175955360303	-22.39573642538493	16.821226951754774	0	0	0
137	1	1	-18.270450725461533	-22.84318487057991	16.813319711213264	0	0	0
138	1	1	-19.164725495562763	-23.073756964360182	17.196867811365212	0	0	0
139	1	1	-20.059000265663993	-23.521205409555165	17.188960570823703	0	0	0
140	1	1	-20.953275035765223	-23.751777503335436	17.57250867097565	0	0	0
141	1	1	-21.847549805866453	-24.19922594853042	17.56460143043414	0	0	0
142	1	1	-22.558394055768368	-23.52124100863975	17.377420038028735	0	0	0
143	1	1	-23.269238305670285	-22.840498131108458	17.554308667035244	0	0	0
144	1	1	-23.980082555572203	-22.346936645982577	17.053212356151082	0	0	0
145	1	1	-24.69092680547412	-21.666193768451286	17.23010098515759	0	0	0
146	1	1	-25.401771055376038	-21.172632283325406	16.72900467427343	0	0	0
147	1	1	-26.112615305277956	-20.491889405794115	16.90589330327994	0	0	0
148	1	1	-26.823459555179873	-19.998327920668235	16.404796992395777	0	0	0
149	1	1	-27.53430380508179	-19.317585043136944	16.581685621402286	0	0	0
150	1	1	-28.24514805498371	-18.824023558011064	16.080589310518125	0	0	0
151	1	1	-28.955992304885626	-18.143280680479773	16.257477939524634	0	0	0
152	1	1	-29.666836554787544	-17.649719195353892	15.756381628640472	0	0	0
153	1	1	-30.37768080468946	-16.9689763178226	15.933270257646981	0	0	0
154	1	1	-31.08852505459138	-16.47541483269672	15.43217394676282	0	0	0
155	1	1	-31.799369304493297	-15.794671955165432	15.609062575769329	0	0	0
156	1	1	-32.510213554395214	-15.30111047003955	15.107966264885167	0	0	0
157	1	1	-33.22105780429713	-14.620367592508261	15.284854893891676	0	0	0
158	1	1	-33.93190205419905	-14.126806107382379	14.783758583007515	0	0	0
159	1	1	-34.64274630410097	-13.44606322985109	14.960647212014024	0	0	0
160	1	1	-35.353590554002885	-12.952501744725208	14.459550901129862	0	0	0
161	1	1	-36.0644348039048	-12.271758867193919	14.636439530136371	0	0	0
162	1	1	-22.017076124485186	-24.62216285348136	18.45476164170293	0	0	0
163	1	1	-22.18660244310392	-25.433517063001233	19.014194545624356	0	0	0
164	1	1	-22.35612876172265	-25.354711061252317	19.996564354496723	0	0	0
165	1	1	-22.525655080341384	-26.166065270772194	20.55599725841815	0	0	0
166	1	1	-22.695181398960116	-26.087259269023278	21.538367067290515	0	0	0
167	1	1	-22.86470771757885	-26.898613478543155	22.09779997121194	0	0	0
168	1	1	-23.03423403619758	-26.81980747679424	23.080169780084308	0	0	0
169	1	1	-23.203760354816314	-27.631161686314115	23.639602684005734	0	0	0
170	1	1	-23.373286673435047	-27.5523556845652	24.6219724928781	0	0	0
171	1	1	-23.54281299205378	-28.363709894085076	25.181405396799526	0	0	0
172	1	1	-23.71233931067251	-28.28490389233616	26.163775205671893	0	0	0
173	1	1	-23.881865629291244	-29.096258101856037	26.72320810959332	0	0	0
174	1	1	-24.051391947909977	-29.01745210010712	27.705577918465686	0	0	0
175	1	1	-24.22091826652871	-29.828806309626998	28.26501082238711	0	0	0
176	1	1	-24.390444585147442	-29.750000307878082	29.247380631259478	0	0	0
177	1	1	-24.559970903766175	-30.56135451739796	29.806813535180904	0	0	0
178	1	1	-24.729497222384907	-30.482548515649043	30.78918334405327	0	0	0
179	1	1	-24.89902354100364	-31.29390272516892	31.348616247974697	0	0	0
180	1	1	-25.068549859622372	-31.215096723420004	32.33098605684707	0	0	0
181	1	1	-25.238076178241105	-32.02645093293988	32.89041896076849	0	0	0
182	1	1	-21.86272439424428	-24.90235806394886	16.853704138179662	0	0	0
183	1	1	-21.87789898262211	-25.155839691990682	15.88648296589649	0	0	0
184	1	1	-21.89307357099994	-26.120218612286983	15.62239390903176	0	0	0
185	1	1	-21.908248159377766	-26.373700240328805	14.65517273674859	0	0	0
186	1	1	-21.923422747755595	-27.338079160625107	14.39108367988386	0	0	0
187	1	1	-21.938597336133423	-27.59156078866693	13.423862507600688	0	0	0
188	1	1	-21.95377192451125	-28.55593970896323	13.159773450735958	0	0	0
189	1	1	-21.96894651288908	-28.809421337005052	12.192552278452787	0	0	0
190	1	1	-21.984121101266908	-29.773800257301353	11.928463221588057	0	0	0
191	1	1	-21.999295689644736	-30.027281885343175	10.961242049304886	0	0	0
192	1	1	-22.014470278022564	-30.991660805639476	10.697152992440156	0	0	0
193	1	1	-22.029644866400393	-31.2451424336813	9.729931820156985	0	0	0
194	1	1	-22.04481945477822	-32.2095213539776	9.465842763292255	0	0	0
195	1	1	-22.05999404315605	-32.463002982019425	8.498621591009083	0	0	0
196	1	1	-22.075168631533877	-33.42738190231573	8.234532534144353	0	0	0
197	1	1	-22.090343219911706	-33.680863530357556	7.267311361861183	0	0	0
198	1	1	-22.105517808289534	-34.64524245065386	7.003222304996454	0	0	0
199	1	1	-22.120692396667362	-34.898724078695686	6.036001132713284	0	0	0
200	1	1	-22.13586698504519	-35.86310299899199	5.7719120758485545	0	0	0
201	1	1	-22.15104157342302	-36.116584627033816	4.804690903565384	0	0	0

Bonds

1	1	1	2
2	1	2	3
3	1	3	4
4	1	4	5
5	1	5	6
6	1	6	7
7	1	7	8
8	1	8	9
9	1	9	10
10	1	10	11
11	1	11	12
12	1	12	13
13	1	13	14
14	1	14	15
15	1	15	16
16	1	16	17
17	1	17	18
18	1	18	19
19	1	19	20
20	1	20	21
21	1	21	22
22	1	21	42
23	1	21	62
24	1	22	23
25	1	23	24
26	1	24	25
27	1	25	26
28	1	26	27
29	1	27	28
30	1	28	29
31	1	29	30
32	1	30	31
33	1	31	32
34	1	32	33
35	1	33	34
36	1	34	35
37	1	35	36
38	1	36	37
39	1	37	38
40	1	38	39
41	1	39	40
42	1	40	41
43	1	42	43
44	1	43	44
45	1	44	45
46	1	45	46
47	1	46	47
48	1	47	48
49	1	48	49
50	1	49	50
51	1	50	51
52	1	51	52
53	1	52	53
54	1	53	54
55	1	54	55
56	1	55	56
57	1	56	57
58	1	57	58
59	1	58	59
60	1	59	60
61	1	60	61
62	1	62	63
63	1	63	64
64	1	64	65
65	1	65	66
66	1	66	67
67	1	67	68
68	1	68	69
69	1	69	70
70	1	70	71
71	1	71	72
72	1	72	73
73	1	73	74
74	1	74	75
75	1	75	76
76	1	76	77
77	1	77	78
78	1	78	79
79	1	79	80
80	1	80	81
81	1	81	82
82	1	81	102
83	1	81	122
84	1	82	83
85	1	83	84
86	1	84	85
87	1	85	86
88	1	86	87
89	1	87	88
90	1	88	89
91	1	89	90
92	1	90	91
93	1	91	92
94	1	92	93
95	1	93	94
96	1	94	95
97	1	95	96
98	1	96	97
99	1	97	98
100	1	98	99
101	1	99	100
102	1	100	101
103	1	102	103
104	1	103	104
105	1	104	105
106	1	105	106
107	1	106	107
108	1	107	108
109	1	108	109
110	1	109	110
111	1	110	111
112	1	111	112
113	1	112	113
114	1	113	114
115	1	114	115
116	1	115	116
117	1	116	117
118	1	117	118
119	1	118	119
120	1	119	120
121	1	120	121
122	1	122	123
123	1	123	124
124	1	124	125
125	1	125	126
126	1	126	127
127	1	127	128
128	1	128	129
129	1	129	130
130	1	130	131
131	1	131	132
132	1	132	133
133	1	133	134
134	1	134	135
135	1	135	136
136	1	136	137
137	1	137	138
138	1	138	139
139	1	139	140
140	1	140	141
141	1	141	142
142	1	141	162
143	1	141	182
144	1	142	143
145	1	143	144
146	1	144	145
147	1	145	146
148	1	146	147
149	1	147	148
150	1	148	149
151	1	149	150
152	1	150	151
153	1	151	152
154	1	152	153
155	1	153	154
156	1	154	155
157	1	155	156
158	1	156	157
159	1	157	158
160	1	158	159
161	1	159	160
162	1	160	161
163	1	162	163
164	1	163	164
165	1	164	165
166	1	165	166
167	1	166	167
168	1	167	168
169	1	168	169
170	1	169	170
171	1	170	171
172	1	171	172
173	1	172	173
174	1	173	174
175	1	174	175
176	1	175	176
177	1	176	177
178	1	177	178
179	1	178	179
180	1	179	180
181	1	180	181
182	1	182	183
183	1	183	184
184	1	184	185
185	1	185	186
186	1	186	187
187	1	187	188
188	1	188	189
189	1	189	190
190	1	190	191
191	1	191	192
192	1	192	193
193	1	193	194
194	1	194	195
195	1	195	196
196	1	196	197
197	1	197	198
198	1	198	199
199	1	199	200
200	1	200	201

Angles

1	1	1	2	3
2	1	2	3	4
3	1	3	4	5
4	1	4	5	6
5	1	5	6	7
6	1	6	7	8
7	1	7	8	9
8	1	8	9	10
9	1	9	10	11
10	1	10	11	12
11	1	11	12	13
12	1	12	13	14
13	1	13	14	15
14	1	14	15	16
15	1	15	16	17
16	1	16	17	18
17	1	17	18	19
18	1	18	19	20
19	1	19	20	21
20	1	20	21	22
21	1	20	21	42
22	1	20	21	62
23	1	21	22	23
24	1	21	42	43
25	1	21	62	63
26	1	22	21	42
27	1	22	21	62
28	1	22	23	24
29	1	23	24	25
30	1	24	25	26
31	1	25	26	27
32	1	26	27	28
33	1	27	28	29
34	1	28	29	30
35	1	29	30	31
36	1	30	31	32
37	1	31	32	33
38	1	32	33	34
39	1	33	34	35
40	1	34	35	36
41	1	35	36	37
42	1	36	37	38
43	1	37	38	39
44	1	38	39	40
45	1	39	40	41
46	1	42	21	62
47	1	42	43	44
48	1	43	44	45
49	1	44	45	46
50	1	45	46	47
51	1	46	47	48
52	1	47	48	49
53	1	48	49	50
54	1	49	50	51
55	1	50	51	52
56	1	51	52	53
57	1	52	53	54
58	1	53	54	55
59	1	54	55	56
60	1	55	56	57
61	1	56	57	58
62	1	57	58	59
63	1	58	59	60
64	1	59	60	61
65	1	62	63	64
66	1	63	64	65
67	1	64	65	66
68	1	65	66	67
69	1	66	67	68
70	1	67	68	69
71	1	68	69	70
72	1	69	70	71
73	1	70	71	72
74	1	71	72	73
75	1	72	73	74
76	1	73	74	75
77	1	74	75	76
78	1	75	76	77
79	1	76	77	78
80	1	77	78	79
81	1	78	79	80
82	1	79	80	81
83	1	80	81	82
84	1	80	81	102
85	1	80	81	122
86	1	81	82	83
87	1	81	102	103
88	1	81	122	123
89	1	82	81	102
90	1	82	81	122
91	1	82	83	84
92	1	83	84	85
93	1	84	85	86
94	1	85	86	87
95	1	86	87	88
96	1	87	88	89
97	1	88	89	90
98	1	89	90	91
99	1	90	91	92
100	1	91	92	93
101	1	92	93	94
102	1	93	94	95
103	1	94	95	96
104	1	95	96	97
105	1	96	97	98
106	1	97	98	99
107	1	98	99	100
108	1	99	100	101
109	1	102	81	122
110	1	102	103	104
111	1	103	104	105
112	1	104	105	106
113	1	105	106	107
114	1	106	107	108
115	1	107	108	109
116	1	108	109	110
117	1	109	110	111
118	1	110	111	112
119	1	111	112	113
120	1	112	113	114
121	1	113	114	115
122	1	114	115	116
123	1	115	116	117
124	1	116	117	118
125	1	117	118	119
126	1	118	119	120
127	1	119	120	121
128	1	122	123	124
129	1	123	124	125
130	1	124	125	126
131	1	125	126	127
132	1	126	127	128
133	1	127	128	129
134	1	128	129	130
135	1	129	130	131
136	1	130	131	132
137	1	131	132	133
138	1	132	133	134
139	1	133	134	135
140	1	134	135	136
141	1	135	136	137
142	1	136	137	138
143	1	137	138	139
144	1	138	139	140
145	1	139	140	141
146	1	140	141	142
147	1	140	141	162
148	1	140	141	182
149	1	141	142	143
150	1	141	162	163
151	1	141	182	183
152	1	142	141	162
153	1	142	141	182
154	1	142	143	144
155	1	143	144	145
156	1	144	145	146
157	1	145	146	147
158	1	146	147	148
159	1	147	148	149
160	1	148	149	150
161	1	149	150	151
162	1	150	151	152
163	1	151	152	153
164	1	152	153	154
165	1	153	154	155
166	1	154	155	156
167	1	155	156	157
168	1	156	157	158
169	1	157	158	159
170	1	158	159	160
171	1	159	160	161
172	1	162	141	182
173	1	162	163	164
174	1	163	164	165
175	1	164	165	166
176	1	165	166	167
177	1	166	167	168
178	1	167	168	169
179	1	168	169	170
180	1	169	170	171
181	1	170	171	172
182	1	171	172	173
183	1	172	173	174
184	1	173	174	175
185	1	174	175	176
186	1	175	176	177
187	1	176	177	178
188	1	177	178	179
189	1	178	179	180
190	1	179	180	181
191	1	182	183	184
192	1	183	184	185
193	1	184	185	186
194	1	185	186	187
195	1	186	187	188
196	1	187	188	189
197	1	188	189	190
198	1	189	190	191
199	1	190	191	192
200	1	191	192	193
201	1	192	193	194
202	1	193	194	195
203	1	194	195	196
204	1	195	196	197
205	1	196	197	198
206	1	197	198	199
207	1	198	199	200
208	1	199	200	201
