bb101nuc1bl50bn4d30tot200

201 atoms
200 bonds
202 angles

1 atom types
1 bond types
1 angle types

-1000 1000 xlo xhi
-1000 1000 ylo yhi
-1000 1000 zlo zhi

Masses

1 1

Atoms

1	1	1	0.0	0.0	0.0	0	0	0
2	1	1	0.0	0.0	1.0	0	0	0
3	1	1	0.0	-0.49999999999999994	1.8660254037844388	0	0	0
4	1	1	0.0	0.0	2.7320508075688776	0	0	0
5	1	1	0.0	-0.49999999999999994	3.5980762113533165	0	0	0
6	1	1	0.0	0.0	4.464101615137755	0	0	0
7	1	1	0.0	-0.49999999999999994	5.330127018922194	0	0	0
8	1	1	0.0	0.0	6.196152422706632	0	0	0
9	1	1	0.0	-0.49999999999999994	7.06217782649107	0	0	0
10	1	1	0.0	0.0	7.928203230275509	0	0	0
11	1	1	0.0	-0.49999999999999994	8.794228634059948	0	0	0
12	1	1	0.0	0.0	9.660254037844387	0	0	0
13	1	1	0.0	-0.49999999999999994	10.526279441628827	0	0	0
14	1	1	0.0	0.0	11.392304845413266	0	0	0
15	1	1	0.0	-0.49999999999999994	12.258330249197705	0	0	0
16	1	1	0.0	0.0	13.124355652982144	0	0	0
17	1	1	0.0	-0.49999999999999994	13.990381056766584	0	0	0
18	1	1	0.0	0.0	14.856406460551023	0	0	0
19	1	1	0.0	-0.49999999999999994	15.722431864335462	0	0	0
20	1	1	0.0	0.0	16.5884572681199	0	0	0
21	1	1	0.0	-0.49999999999999994	17.454482671904337	0	0	0
22	1	1	0.0	0.0	18.320508075688775	0	0	0
23	1	1	0.0	-0.49999999999999994	19.186533479473212	0	0	0
24	1	1	0.0	0.0	20.05255888325765	0	0	0
25	1	1	0.0	-0.49999999999999994	20.918584287042087	0	0	0
26	1	1	0.0	0.0	21.784609690826525	0	0	0
27	1	1	0.0	-0.49999999999999994	22.650635094610962	0	0	0
28	1	1	0.0	0.0	23.5166604983954	0	0	0
29	1	1	0.0	-0.49999999999999994	24.382685902179837	0	0	0
30	1	1	0.0	0.0	25.248711305964274	0	0	0
31	1	1	0.0	-0.49999999999999994	26.114736709748712	0	0	0
32	1	1	0.0	0.0	26.98076211353315	0	0	0
33	1	1	0.0	-0.49999999999999994	27.846787517317587	0	0	0
34	1	1	0.0	0.0	28.712812921102024	0	0	0
35	1	1	0.0	-0.49999999999999994	29.578838324886462	0	0	0
36	1	1	0.0	0.0	30.4448637286709	0	0	0
37	1	1	0.0	-0.49999999999999994	31.310889132455337	0	0	0
38	1	1	0.0	0.0	32.17691453623978	0	0	0
39	1	1	0.0	-0.49999999999999994	33.04293994002422	0	0	0
40	1	1	0.0	0.0	33.90896534380866	0	0	0
41	1	1	0.0	-0.49999999999999994	34.7749907475931	0	0	0
42	1	1	0.0	0.0	35.64101615137754	0	0	0
43	1	1	0.0	-0.49999999999999994	36.50704155516198	0	0	0
44	1	1	0.0	0.0	37.373066958946424	0	0	0
45	1	1	0.0	-0.49999999999999994	38.239092362730865	0	0	0
46	1	1	0.0	0.0	39.105117766515306	0	0	0
47	1	1	0.0	-0.49999999999999994	39.97114317029975	0	0	0
48	1	1	0.0	0.0	40.83716857408419	0	0	0
49	1	1	0.0	-0.49999999999999994	41.70319397786863	0	0	0
50	1	1	0.0	0.0	42.56921938165307	0	0	0
51	1	1	0.0	-0.49999999999999994	43.43524478543751	0	0	0
52	1	1	0.6927266505107194	-0.11325455505782595	44.043979332254665	0	0	0
53	1	1	1.3854533010214376	-0.08269044834856326	44.76453163643061	0	0	0
54	1	1	2.0781799515321557	0.55660820517785	45.098338495664386	0	0	0
55	1	1	2.770906602042874	0.5871723118871127	45.81889079984033	0	0	0
56	1	1	3.463633252553592	1.226470965413526	46.15269765907411	0	0	0
57	1	1	4.15635990306431	1.2570350721227888	46.87324996325005	0	0	0
58	1	1	4.849086553575027	1.896333725649202	47.20705682248383	0	0	0
59	1	1	5.541813204085745	1.9268978323584647	47.927609126659775	0	0	0
60	1	1	6.234539854596463	2.566196485884878	48.26141598589355	0	0	0
61	1	1	6.9272665051071804	2.5967605925941406	48.981968290069496	0	0	0
62	1	1	7.619993155617898	3.236059246120554	49.31577514930327	0	0	0
63	1	1	8.312719806128616	3.266623352829817	50.03632745347922	0	0	0
64	1	1	9.005446456639334	3.9059220063562305	50.37013431271299	0	0	0
65	1	1	9.698173107150051	3.9364861130654933	51.09068661688894	0	0	0
66	1	1	10.390899757660769	4.575784766591907	51.42449347612271	0	0	0
67	1	1	11.083626408171487	4.60634887330117	52.14504578029866	0	0	0
68	1	1	11.776353058682204	5.245647526827583	52.478852639532434	0	0	0
69	1	1	12.469079709192922	5.276211633536846	53.19940494370838	0	0	0
70	1	1	13.16180635970364	5.91551028706326	53.533211802942155	0	0	0
71	1	1	13.854533010214357	5.9460743937725224	54.2537641071181	0	0	0
72	1	1	14.547259660725075	6.585373047298936	54.587570966351876	0	0	0
73	1	1	15.239986311235793	6.615937154008199	55.30812327052782	0	0	0
74	1	1	15.93271296174651	7.255235807534612	55.6419301297616	0	0	0
75	1	1	16.625439612257228	7.285799914243875	56.362482433937544	0	0	0
76	1	1	17.318166262767946	7.925098567770289	56.69628929317132	0	0	0
77	1	1	18.010892913278663	7.9556626744795516	57.416841597347265	0	0	0
78	1	1	18.70361956378938	8.594961328005965	57.75064845658104	0	0	0
79	1	1	19.3963462143001	8.625525434715227	58.471200760756986	0	0	0
80	1	1	20.089072864810817	9.26482408824164	58.80500761999076	0	0	0
81	1	1	20.781799515321534	9.295388194950903	59.52555992416671	0	0	0
82	1	1	21.474526165832252	9.934686848477316	59.85936678340048	0	0	0
83	1	1	22.16725281634297	9.965250955186578	60.57991908757643	0	0	0
84	1	1	22.859979466853687	10.604549608712992	60.9137259468102	0	0	0
85	1	1	23.552706117364405	10.635113715422253	61.63427825098615	0	0	0
86	1	1	24.245432767875123	11.274412368948667	61.968085110219924	0	0	0
87	1	1	24.93815941838584	11.304976475657929	62.68863741439587	0	0	0
88	1	1	25.630886068896558	11.944275129184343	63.022444273629645	0	0	0
89	1	1	26.323612719407276	11.974839235893604	63.74299657780559	0	0	0
90	1	1	27.016339369917993	12.614137889420018	64.07680343703936	0	0	0
91	1	1	27.70906602042871	12.64470199612928	64.79735574121531	0	0	0
92	1	1	28.40179267093943	13.284000649655693	65.13116260044909	0	0	0
93	1	1	29.094519321450147	13.314564756364955	65.85171490462504	0	0	0
94	1	1	29.787245971960864	13.953863409891369	66.18552176385882	0	0	0
95	1	1	30.479972622471582	13.98442751660063	66.90607406803477	0	0	0
96	1	1	31.1726992729823	14.623726170127044	67.23988092726854	0	0	0
97	1	1	31.865425923493017	14.654290276836306	67.9604332314445	0	0	0
98	1	1	32.558152574003735	15.29358893036272	68.29424009067827	0	0	0
99	1	1	33.250879224514456	15.324153037071982	69.01479239485423	0	0	0
100	1	1	33.94360587502518	15.963451690598395	69.348599254088	0	0	0
101	1	1	34.6363325255359	15.994015797307657	70.06915155826395	0	0	0
102	1	1	0.2072855493036972	-1.4632728547794585	43.26454590349946	0	0	0
103	1	1	0.41457109860739405	-2.212142176825401	42.63507990795378	0	0	0
104	1	1	0.6218566479110909	-3.1317103808093942	42.968886767187556	0	0	0
105	1	1	0.8291421972147877	-3.8805797028553366	42.339420771641876	0	0	0
106	1	1	1.0364277465184846	-4.80014790683933	42.67322763087565	0	0	0
107	1	1	1.2437132958221815	-5.549017228885273	42.04376163532997	0	0	0
108	1	1	1.4509988451258784	-6.468585432869266	42.37756849456375	0	0	0
109	1	1	1.6582843944295753	-7.217454754915209	41.74810249901807	0	0	0
110	1	1	1.8655699437332722	-8.137022958899202	42.08190935825184	0	0	0
111	1	1	2.072855493036969	-8.885892280945145	41.45244336270616	0	0	0
112	1	1	2.280141042340666	-9.805460484929139	41.78625022193994	0	0	0
113	1	1	2.487426591644363	-10.554329806975081	41.15678422639426	0	0	0
114	1	1	2.69471214094806	-11.473898010959076	41.49059108562803	0	0	0
115	1	1	2.901997690251757	-12.222767333005018	40.86112509008235	0	0	0
116	1	1	3.1092832395554537	-13.142335536989012	41.19493194931613	0	0	0
117	1	1	3.3165687888591506	-13.891204859034955	40.56546595377045	0	0	0
118	1	1	3.5238543381628475	-14.81077306301895	40.899272813004224	0	0	0
119	1	1	3.7311398874665445	-15.559642385064892	40.269806817458544	0	0	0
120	1	1	3.9384254367702414	-16.479210589048886	40.60361367669232	0	0	0
121	1	1	4.145710986073938	-17.228079911094827	39.97414768114664	0	0	0
122	1	1	4.352996535377635	-18.14764811507882	40.307954540380415	0	0	0
123	1	1	4.560282084681331	-18.89651743712476	39.678488544834735	0	0	0
124	1	1	4.767567633985028	-19.816085641108753	40.01229540406851	0	0	0
125	1	1	4.974853183288724	-20.564954963154694	39.38282940852283	0	0	0
126	1	1	5.182138732592421	-21.484523167138686	39.716636267756606	0	0	0
127	1	1	5.389424281896117	-22.233392489184627	39.087170272210926	0	0	0
128	1	1	5.596709831199814	-23.15296069316862	39.4209771314447	0	0	0
129	1	1	5.80399538050351	-23.90183001521456	38.79151113589902	0	0	0
130	1	1	6.0112809298072065	-24.821398219198553	39.1253179951328	0	0	0
131	1	1	6.218566479110903	-25.570267541244494	38.49585199958712	0	0	0
132	1	1	6.4258520284145995	-26.489835745228486	38.82965885882089	0	0	0
133	1	1	6.633137577718296	-27.238705067274427	38.20019286327521	0	0	0
134	1	1	6.840423127021992	-28.15827327125842	38.53399972250899	0	0	0
135	1	1	7.047708676325689	-28.90714259330436	37.90453372696331	0	0	0
136	1	1	7.254994225629385	-29.826710797288353	38.23834058619708	0	0	0
137	1	1	7.462279774933082	-30.575580119334294	37.6088745906514	0	0	0
138	1	1	7.669565324236778	-31.495148323318286	37.94268144988518	0	0	0
139	1	1	7.876850873540475	-32.24401764536423	37.3132154543395	0	0	0
140	1	1	8.084136422844171	-33.16358584934822	37.647022313573274	0	0	0
141	1	1	8.291421972147868	-33.912455171394164	37.017556318027594	0	0	0
142	1	1	8.498707521451564	-34.83202337537816	37.35136317726137	0	0	0
143	1	1	8.70599307075526	-35.5808926974241	36.72189718171569	0	0	0
144	1	1	8.913278620058957	-36.50046090140809	37.055704040949465	0	0	0
145	1	1	9.120564169362654	-37.24933022345403	36.426238045403785	0	0	0
146	1	1	9.32784971866635	-38.16889842743802	36.76004490463756	0	0	0
147	1	1	9.535135267970047	-38.917767749483964	36.13057890909188	0	0	0
148	1	1	9.742420817273743	-39.83733595346796	36.464385768325656	0	0	0
149	1	1	9.94970636657744	-40.5862052755139	35.834919772779976	0	0	0
150	1	1	10.156991915881136	-41.50577347949789	36.16872663201375	0	0	0
151	1	1	10.364277465184832	-42.25464280154383	35.53926063646807	0	0	0
152	1	1	-0.9000121998144179	-0.42418287901337115	43.86446478072025	0	0	0
153	1	1	-1.8000243996288343	-0.5731333238385217	44.27408876094065	0	0	0
154	1	1	-2.7000365994432505	-0.2928637733809338	44.607895620174425	0	0	0
155	1	1	-3.600048799257667	-0.44181421820608424	45.01751960039483	0	0	0
156	1	1	-4.500060999072083	-0.16154466774849635	45.3513264596286	0	0	0
157	1	1	-5.400073198886499	-0.3104951125736468	45.760950439849005	0	0	0
158	1	1	-6.300085398700915	-0.030225562116058924	46.09475729908278	0	0	0
159	1	1	-7.200097598515331	-0.17917600694120941	46.50438127930318	0	0	0
160	1	1	-8.100109798329747	0.10109354351637848	46.83818813853696	0	0	0
161	1	1	-9.000121998144163	-0.047856901308772015	47.24781211875736	0	0	0
162	1	1	-9.900134197958579	0.23241264914881588	47.581618977991134	0	0	0
163	1	1	-10.800146397772995	0.08346220432366538	47.99124295821154	0	0	0
164	1	1	-11.70015859758741	0.3637317547812533	48.32504981744531	0	0	0
165	1	1	-12.600170797401827	0.2147813099561028	48.734673797665714	0	0	0
166	1	1	-13.500182997216243	0.49505086041369073	49.06848065689949	0	0	0
167	1	1	-14.400195197030659	0.3461004155885402	49.47810463711989	0	0	0
168	1	1	-15.300207396845074	0.6263699660461282	49.811911496353666	0	0	0
169	1	1	-16.20021959665949	0.47741952122097764	50.22153547657407	0	0	0
170	1	1	-17.100231796473906	0.7576890716785656	50.55534233580784	0	0	0
171	1	1	-18.000243996288322	0.6087386268534151	50.964966316028246	0	0	0
172	1	1	-18.900256196102738	0.889008177311003	51.29877317526202	0	0	0
173	1	1	-19.800268395917154	0.7400577324858525	51.70839715548242	0	0	0
174	1	1	-20.70028059573157	1.0203272829434404	52.0422040147162	0	0	0
175	1	1	-21.600292795545986	0.8713768381182899	52.4518279949366	0	0	0
176	1	1	-22.500304995360402	1.1516463885758779	52.785634854170375	0	0	0
177	1	1	-23.400317195174818	1.0026959437507275	53.19525883439078	0	0	0
178	1	1	-24.300329394989234	1.2829654942083153	53.52906569362455	0	0	0
179	1	1	-25.20034159480365	1.1340150493831649	53.938689673844955	0	0	0
180	1	1	-26.100353794618066	1.4142845998407527	54.27249653307873	0	0	0
181	1	1	-27.00036599443248	1.2653341550156023	54.68212051329913	0	0	0
182	1	1	-27.900378194246898	1.5456037054731901	55.01592737253291	0	0	0
183	1	1	-28.800390394061314	1.3966532606480397	55.42555135275331	0	0	0
184	1	1	-29.70040259387573	1.6769228111056276	55.759358211987085	0	0	0
185	1	1	-30.600414793690145	1.5279723662804772	56.16898219220749	0	0	0
186	1	1	-31.50042699350456	1.808241916738065	56.50278905144126	0	0	0
187	1	1	-32.40043919331898	1.6592914719129146	56.912413031661664	0	0	0
188	1	1	-33.3004513931334	1.9395610223705024	57.24621989089544	0	0	0
189	1	1	-34.20046359294782	1.790610577545352	57.65584387111584	0	0	0
190	1	1	-35.10047579276224	2.07088012800294	57.98965073034962	0	0	0
191	1	1	-36.00048799257666	1.9219296831777897	58.39927471057002	0	0	0
192	1	1	-36.90050019239108	2.2021992336353775	58.733081569803794	0	0	0
193	1	1	-37.8005123922055	2.053248788810227	59.142705550024196	0	0	0
194	1	1	-38.70052459201992	2.333518339267815	59.47651240925797	0	0	0
195	1	1	-39.60053679183434	2.1845678944426643	59.886136389478374	0	0	0
196	1	1	-40.500548991648756	2.4648374449002524	60.21994324871215	0	0	0
197	1	1	-41.400561191463176	2.3158870000751017	60.62956722893255	0	0	0
198	1	1	-42.300573391277595	2.59615655053269	60.963374088166326	0	0	0
199	1	1	-43.200585591092015	2.447206105707539	61.37299806838673	0	0	0
200	1	1	-44.100597790906434	2.727475656165127	61.7068049276205	0	0	0
201	1	1	-45.000609990720854	2.5785252113399766	62.116428907840906	0	0	0

Bonds

1	1	1	2
2	1	2	3
3	1	3	4
4	1	4	5
5	1	5	6
6	1	6	7
7	1	7	8
8	1	8	9
9	1	9	10
10	1	10	11
11	1	11	12
12	1	12	13
13	1	13	14
14	1	14	15
15	1	15	16
16	1	16	17
17	1	17	18
18	1	18	19
19	1	19	20
20	1	20	21
21	1	21	22
22	1	22	23
23	1	23	24
24	1	24	25
25	1	25	26
26	1	26	27
27	1	27	28
28	1	28	29
29	1	29	30
30	1	30	31
31	1	31	32
32	1	32	33
33	1	33	34
34	1	34	35
35	1	35	36
36	1	36	37
37	1	37	38
38	1	38	39
39	1	39	40
40	1	40	41
41	1	41	42
42	1	42	43
43	1	43	44
44	1	44	45
45	1	45	46
46	1	46	47
47	1	47	48
48	1	48	49
49	1	49	50
50	1	50	51
51	1	51	52
52	1	52	53
53	1	53	54
54	1	54	55
55	1	55	56
56	1	56	57
57	1	57	58
58	1	58	59
59	1	59	60
60	1	60	61
61	1	61	62
62	1	62	63
63	1	63	64
64	1	64	65
65	1	65	66
66	1	66	67
67	1	67	68
68	1	68	69
69	1	69	70
70	1	70	71
71	1	71	72
72	1	72	73
73	1	73	74
74	1	74	75
75	1	75	76
76	1	76	77
77	1	77	78
78	1	78	79
79	1	79	80
80	1	80	81
81	1	81	82
82	1	82	83
83	1	83	84
84	1	84	85
85	1	85	86
86	1	86	87
87	1	87	88
88	1	88	89
89	1	89	90
90	1	90	91
91	1	91	92
92	1	92	93
93	1	93	94
94	1	94	95
95	1	95	96
96	1	96	97
97	1	97	98
98	1	98	99
99	1	99	100
100	1	100	101
101	1	51	102
102	1	102	103
103	1	103	104
104	1	104	105
105	1	105	106
106	1	106	107
107	1	107	108
108	1	108	109
109	1	109	110
110	1	110	111
111	1	111	112
112	1	112	113
113	1	113	114
114	1	114	115
115	1	115	116
116	1	116	117
117	1	117	118
118	1	118	119
119	1	119	120
120	1	120	121
121	1	121	122
122	1	122	123
123	1	123	124
124	1	124	125
125	1	125	126
126	1	126	127
127	1	127	128
128	1	128	129
129	1	129	130
130	1	130	131
131	1	131	132
132	1	132	133
133	1	133	134
134	1	134	135
135	1	135	136
136	1	136	137
137	1	137	138
138	1	138	139
139	1	139	140
140	1	140	141
141	1	141	142
142	1	142	143
143	1	143	144
144	1	144	145
145	1	145	146
146	1	146	147
147	1	147	148
148	1	148	149
149	1	149	150
150	1	150	151
151	1	51	152
152	1	152	153
153	1	153	154
154	1	154	155
155	1	155	156
156	1	156	157
157	1	157	158
158	1	158	159
159	1	159	160
160	1	160	161
161	1	161	162
162	1	162	163
163	1	163	164
164	1	164	165
165	1	165	166
166	1	166	167
167	1	167	168
168	1	168	169
169	1	169	170
170	1	170	171
171	1	171	172
172	1	172	173
173	1	173	174
174	1	174	175
175	1	175	176
176	1	176	177
177	1	177	178
178	1	178	179
179	1	179	180
180	1	180	181
181	1	181	182
182	1	182	183
183	1	183	184
184	1	184	185
185	1	185	186
186	1	186	187
187	1	187	188
188	1	188	189
189	1	189	190
190	1	190	191
191	1	191	192
192	1	192	193
193	1	193	194
194	1	194	195
195	1	195	196
196	1	196	197
197	1	197	198
198	1	198	199
199	1	199	200
200	1	200	201

Angles

1	1	1	2	3
2	1	2	3	4
3	1	3	4	5
4	1	4	5	6
5	1	5	6	7
6	1	6	7	8
7	1	7	8	9
8	1	8	9	10
9	1	9	10	11
10	1	10	11	12
11	1	11	12	13
12	1	12	13	14
13	1	13	14	15
14	1	14	15	16
15	1	15	16	17
16	1	16	17	18
17	1	17	18	19
18	1	18	19	20
19	1	19	20	21
20	1	20	21	22
21	1	21	22	23
22	1	22	23	24
23	1	23	24	25
24	1	24	25	26
25	1	25	26	27
26	1	26	27	28
27	1	27	28	29
28	1	28	29	30
29	1	29	30	31
30	1	30	31	32
31	1	31	32	33
32	1	32	33	34
33	1	33	34	35
34	1	34	35	36
35	1	35	36	37
36	1	36	37	38
37	1	37	38	39
38	1	38	39	40
39	1	39	40	41
40	1	40	41	42
41	1	41	42	43
42	1	42	43	44
43	1	43	44	45
44	1	44	45	46
45	1	45	46	47
46	1	46	47	48
47	1	47	48	49
48	1	48	49	50
49	1	49	50	51
50	1	51	52	53
51	1	52	53	54
52	1	53	54	55
53	1	54	55	56
54	1	55	56	57
55	1	56	57	58
56	1	57	58	59
57	1	58	59	60
58	1	59	60	61
59	1	60	61	62
60	1	61	62	63
61	1	62	63	64
62	1	63	64	65
63	1	64	65	66
64	1	65	66	67
65	1	66	67	68
66	1	67	68	69
67	1	68	69	70
68	1	69	70	71
69	1	70	71	72
70	1	71	72	73
71	1	72	73	74
72	1	73	74	75
73	1	74	75	76
74	1	75	76	77
75	1	76	77	78
76	1	77	78	79
77	1	78	79	80
78	1	79	80	81
79	1	80	81	82
80	1	81	82	83
81	1	82	83	84
82	1	83	84	85
83	1	84	85	86
84	1	85	86	87
85	1	86	87	88
86	1	87	88	89
87	1	88	89	90
88	1	89	90	91
89	1	90	91	92
90	1	91	92	93
91	1	92	93	94
92	1	93	94	95
93	1	94	95	96
94	1	95	96	97
95	1	96	97	98
96	1	97	98	99
97	1	98	99	100
98	1	99	100	101
99	1	51	102	103
100	1	102	103	104
101	1	103	104	105
102	1	104	105	106
103	1	105	106	107
104	1	106	107	108
105	1	107	108	109
106	1	108	109	110
107	1	109	110	111
108	1	110	111	112
109	1	111	112	113
110	1	112	113	114
111	1	113	114	115
112	1	114	115	116
113	1	115	116	117
114	1	116	117	118
115	1	117	118	119
116	1	118	119	120
117	1	119	120	121
118	1	120	121	122
119	1	121	122	123
120	1	122	123	124
121	1	123	124	125
122	1	124	125	126
123	1	125	126	127
124	1	126	127	128
125	1	127	128	129
126	1	128	129	130
127	1	129	130	131
128	1	130	131	132
129	1	131	132	133
130	1	132	133	134
131	1	133	134	135
132	1	134	135	136
133	1	135	136	137
134	1	136	137	138
135	1	137	138	139
136	1	138	139	140
137	1	139	140	141
138	1	140	141	142
139	1	141	142	143
140	1	142	143	144
141	1	143	144	145
142	1	144	145	146
143	1	145	146	147
144	1	146	147	148
145	1	147	148	149
146	1	148	149	150
147	1	149	150	151
148	1	51	102	103
149	1	102	103	104
150	1	103	104	105
151	1	104	105	106
152	1	105	106	107
153	1	106	107	108
154	1	107	108	109
155	1	108	109	110
156	1	109	110	111
157	1	110	111	112
158	1	111	112	113
159	1	112	113	114
160	1	113	114	115
161	1	114	115	116
162	1	115	116	117
163	1	116	117	118
164	1	117	118	119
165	1	118	119	120
166	1	119	120	121
167	1	120	121	122
168	1	121	122	123
169	1	122	123	124
170	1	123	124	125
171	1	124	125	126
172	1	125	126	127
173	1	126	127	128
174	1	127	128	129
175	1	128	129	130
176	1	129	130	131
177	1	130	131	132
178	1	131	132	133
179	1	132	133	134
180	1	133	134	135
181	1	134	135	136
182	1	135	136	137
183	1	136	137	138
184	1	137	138	139
185	1	138	139	140
186	1	139	140	141
187	1	140	141	142
188	1	141	142	143
189	1	142	143	144
190	1	143	144	145
191	1	144	145	146
192	1	145	146	147
193	1	146	147	148
194	1	147	148	149
195	1	148	149	150
196	1	149	150	151
197	1	50	51	52
198	1	50	51	102
199	1	50	51	152
200	1	52	51	102
201	1	52	51	152
202	1	102	51	152
