bb151nuc1bl75bn4d30tot300

301 atoms
300 bonds
302 angles

1 atom types
1 bond types
1 angle types

-1000 1000 xlo xhi
-1000 1000 ylo yhi
-1000 1000 zlo zhi

Masses

1 1

Atoms

1	1	1	0.0	0.0	0.0	0	0	0
2	1	1	0.0	0.0	1.0	0	0	0
3	1	1	0.0	-0.49999999999999994	1.8660254037844388	0	0	0
4	1	1	0.0	0.0	2.7320508075688776	0	0	0
5	1	1	0.0	-0.49999999999999994	3.5980762113533165	0	0	0
6	1	1	0.0	0.0	4.464101615137755	0	0	0
7	1	1	0.0	-0.49999999999999994	5.330127018922194	0	0	0
8	1	1	0.0	0.0	6.196152422706632	0	0	0
9	1	1	0.0	-0.49999999999999994	7.06217782649107	0	0	0
10	1	1	0.0	0.0	7.928203230275509	0	0	0
11	1	1	0.0	-0.49999999999999994	8.794228634059948	0	0	0
12	1	1	0.0	0.0	9.660254037844387	0	0	0
13	1	1	0.0	-0.49999999999999994	10.526279441628827	0	0	0
14	1	1	0.0	0.0	11.392304845413266	0	0	0
15	1	1	0.0	-0.49999999999999994	12.258330249197705	0	0	0
16	1	1	0.0	0.0	13.124355652982144	0	0	0
17	1	1	0.0	-0.49999999999999994	13.990381056766584	0	0	0
18	1	1	0.0	0.0	14.856406460551023	0	0	0
19	1	1	0.0	-0.49999999999999994	15.722431864335462	0	0	0
20	1	1	0.0	0.0	16.5884572681199	0	0	0
21	1	1	0.0	-0.49999999999999994	17.454482671904337	0	0	0
22	1	1	0.0	0.0	18.320508075688775	0	0	0
23	1	1	0.0	-0.49999999999999994	19.186533479473212	0	0	0
24	1	1	0.0	0.0	20.05255888325765	0	0	0
25	1	1	0.0	-0.49999999999999994	20.918584287042087	0	0	0
26	1	1	0.0	0.0	21.784609690826525	0	0	0
27	1	1	0.0	-0.49999999999999994	22.650635094610962	0	0	0
28	1	1	0.0	0.0	23.5166604983954	0	0	0
29	1	1	0.0	-0.49999999999999994	24.382685902179837	0	0	0
30	1	1	0.0	0.0	25.248711305964274	0	0	0
31	1	1	0.0	-0.49999999999999994	26.114736709748712	0	0	0
32	1	1	0.0	0.0	26.98076211353315	0	0	0
33	1	1	0.0	-0.49999999999999994	27.846787517317587	0	0	0
34	1	1	0.0	0.0	28.712812921102024	0	0	0
35	1	1	0.0	-0.49999999999999994	29.578838324886462	0	0	0
36	1	1	0.0	0.0	30.4448637286709	0	0	0
37	1	1	0.0	-0.49999999999999994	31.310889132455337	0	0	0
38	1	1	0.0	0.0	32.17691453623978	0	0	0
39	1	1	0.0	-0.49999999999999994	33.04293994002422	0	0	0
40	1	1	0.0	0.0	33.90896534380866	0	0	0
41	1	1	0.0	-0.49999999999999994	34.7749907475931	0	0	0
42	1	1	0.0	0.0	35.64101615137754	0	0	0
43	1	1	0.0	-0.49999999999999994	36.50704155516198	0	0	0
44	1	1	0.0	0.0	37.373066958946424	0	0	0
45	1	1	0.0	-0.49999999999999994	38.239092362730865	0	0	0
46	1	1	0.0	0.0	39.105117766515306	0	0	0
47	1	1	0.0	-0.49999999999999994	39.97114317029975	0	0	0
48	1	1	0.0	0.0	40.83716857408419	0	0	0
49	1	1	0.0	-0.49999999999999994	41.70319397786863	0	0	0
50	1	1	0.0	0.0	42.56921938165307	0	0	0
51	1	1	0.0	-0.49999999999999994	43.43524478543751	0	0	0
52	1	1	0.0	0.0	44.30127018922195	0	0	0
53	1	1	0.0	-0.49999999999999994	45.16729559300639	0	0	0
54	1	1	0.0	0.0	46.033320996790835	0	0	0
55	1	1	0.0	-0.49999999999999994	46.899346400575276	0	0	0
56	1	1	0.0	0.0	47.76537180435972	0	0	0
57	1	1	0.0	-0.49999999999999994	48.63139720814416	0	0	0
58	1	1	0.0	0.0	49.4974226119286	0	0	0
59	1	1	0.0	-0.49999999999999994	50.36344801571304	0	0	0
60	1	1	0.0	0.0	51.22947341949748	0	0	0
61	1	1	0.0	-0.49999999999999994	52.09549882328192	0	0	0
62	1	1	0.0	0.0	52.96152422706636	0	0	0
63	1	1	0.0	-0.49999999999999994	53.827549630850804	0	0	0
64	1	1	0.0	0.0	54.693575034635245	0	0	0
65	1	1	0.0	-0.49999999999999994	55.559600438419686	0	0	0
66	1	1	0.0	0.0	56.42562584220413	0	0	0
67	1	1	0.0	-0.49999999999999994	57.29165124598857	0	0	0
68	1	1	0.0	0.0	58.15767664977301	0	0	0
69	1	1	0.0	-0.49999999999999994	59.02370205355745	0	0	0
70	1	1	0.0	0.0	59.88972745734189	0	0	0
71	1	1	0.0	-0.49999999999999994	60.75575286112633	0	0	0
72	1	1	0.0	0.0	61.62177826491077	0	0	0
73	1	1	0.0	-0.49999999999999994	62.487803668695214	0	0	0
74	1	1	0.0	0.0	63.353829072479655	0	0	0
75	1	1	0.0	-0.49999999999999994	64.21985447626409	0	0	0
76	1	1	0.0	0.0	65.08587988004852	0	0	0
77	1	1	-0.9424019619137199	0.1853056626943509	65.36434056588149	0	0	0
78	1	1	-1.8848039238274437	0.20655473113628164	65.69814742511527	0	0	0
79	1	1	-2.8272058857411677	0.5062644854111886	65.84664862165468	0	0	0
80	1	1	-3.7696078476548913	0.5275135538531194	66.18045548088845	0	0	0
81	1	1	-4.712009809568615	0.8272233081280264	66.32895667742787	0	0	0
82	1	1	-5.654411771482339	0.8484723765699571	66.66276353666164	0	0	0
83	1	1	-6.596813733396063	1.148182130844864	66.81126473320106	0	0	0
84	1	1	-7.539215695309787	1.169431199286795	67.14507159243483	0	0	0
85	1	1	-8.481617657223511	1.469140953561702	67.29357278897425	0	0	0
86	1	1	-9.424019619137235	1.4903900220036328	67.62737964820802	0	0	0
87	1	1	-10.36642158105096	1.7900997762785398	67.77588084474743	0	0	0
88	1	1	-11.308823542964683	1.8113488447204706	68.10968770398121	0	0	0
89	1	1	-12.251225504878407	2.1110585989953776	68.25818890052062	0	0	0
90	1	1	-13.193627466792131	2.1323076674373085	68.5919957597544	0	0	0
91	1	1	-14.136029428705855	2.4320174217122155	68.74049695629381	0	0	0
92	1	1	-15.07843139061958	2.4532664901541463	69.07430381552759	0	0	0
93	1	1	-16.0208333525333	2.7529762444290533	69.222805012067	0	0	0
94	1	1	-16.963235314447026	2.774225312870984	69.55661187130077	0	0	0
95	1	1	-17.90563727636075	3.073935067145891	69.70511306784019	0	0	0
96	1	1	-18.848039238274474	3.095184135587822	70.03891992707396	0	0	0
97	1	1	-19.790441200188198	3.394893889862729	70.18742112361338	0	0	0
98	1	1	-20.732843162101922	3.41614295830466	70.52122798284715	0	0	0
99	1	1	-21.675245124015646	3.715852712579567	70.66972917938656	0	0	0
100	1	1	-22.61764708592937	3.7371017810214977	71.00353603862034	0	0	0
101	1	1	-23.560049047843094	4.036811535296405	71.15203723515975	0	0	0
102	1	1	-24.502451009756818	4.058060603738335	71.48584409439353	0	0	0
103	1	1	-25.444852971670542	4.3577703580132425	71.63434529093294	0	0	0
104	1	1	-26.387254933584266	4.379019426455173	71.96815215016672	0	0	0
105	1	1	-27.32965689549799	4.67872918073008	72.11665334670613	0	0	0
106	1	1	-28.272058857411714	4.699978249172011	72.4504602059399	0	0	0
107	1	1	-29.21446081932544	4.999688003446918	72.59896140247932	0	0	0
108	1	1	-30.156862781239163	5.020937071888849	72.9327682617131	0	0	0
109	1	1	-31.099264743152887	5.320646826163756	73.0812694582525	0	0	0
110	1	1	-32.04166670506661	5.3418958946056865	73.41507631748628	0	0	0
111	1	1	-32.984068666980335	5.641605648880594	73.5635775140257	0	0	0
112	1	1	-33.92647062889406	5.662854717322524	73.89738437325947	0	0	0
113	1	1	-34.86887259080778	5.962564471597432	74.04588556979888	0	0	0
114	1	1	-35.81127455272151	5.983813540039362	74.37969242903266	0	0	0
115	1	1	-36.75367651463523	6.28352329431427	74.52819362557207	0	0	0
116	1	1	-37.696078476548955	6.3047723627562	74.86200048480585	0	0	0
117	1	1	-38.63848043846268	6.604482117031107	75.01050168134526	0	0	0
118	1	1	-39.5808824003764	6.625731185473038	75.34430854057904	0	0	0
119	1	1	-40.52328436229013	6.925440939747945	75.49280973711845	0	0	0
120	1	1	-41.46568632420385	6.946690008189876	75.82661659635222	0	0	0
121	1	1	-42.408088286117575	7.246399762464783	75.97511779289164	0	0	0
122	1	1	-43.3504902480313	7.2676488309067135	76.30892465212541	0	0	0
123	1	1	-44.29289220994502	7.567358585181621	76.45742584866483	0	0	0
124	1	1	-45.23529417185875	7.588607653623551	76.7912327078986	0	0	0
125	1	1	-46.17769613377247	7.888317407898459	76.93973390443801	0	0	0
126	1	1	-47.120098095686195	7.909566476340389	77.27354076367179	0	0	0
127	1	1	-48.06250005759992	8.209276230615297	77.4220419602112	0	0	0
128	1	1	-49.00490201951364	8.230525299057227	77.75584881944498	0	0	0
129	1	1	-49.94730398142737	8.530235053332134	77.90435001598439	0	0	0
130	1	1	-50.88970594334109	8.551484121774065	78.23815687521817	0	0	0
131	1	1	-51.832107905254816	8.851193876048972	78.38665807175758	0	0	0
132	1	1	-52.77450986716854	8.872442944490903	78.72046493099135	0	0	0
133	1	1	-53.716911829082264	9.17215269876581	78.86896612753077	0	0	0
134	1	1	-54.65931379099599	9.19340176720774	79.20277298676454	0	0	0
135	1	1	-55.60171575290971	9.493111521482648	79.35127418330396	0	0	0
136	1	1	-56.544117714823436	9.514360589924578	79.68508104253773	0	0	0
137	1	1	-57.48651967673716	9.814070344199486	79.83358223907715	0	0	0
138	1	1	-58.428921638650884	9.835319412641416	80.16738909831092	0	0	0
139	1	1	-59.37132360056461	10.135029166916324	80.31589029485033	0	0	0
140	1	1	-60.31372556247833	10.156278235358254	80.64969715408411	0	0	0
141	1	1	-61.256127524392056	10.455987989633162	80.79819835062352	0	0	0
142	1	1	-62.19852948630578	10.477237058075092	81.1320052098573	0	0	0
143	1	1	-63.140931448219504	10.77694681235	81.28050640639671	0	0	0
144	1	1	-64.08333341013322	10.79819588079193	81.61431326563049	0	0	0
145	1	1	-65.02573537204694	11.097905635066837	81.7628144621699	0	0	0
146	1	1	-65.96813733396066	11.119154703508768	82.09662132140367	0	0	0
147	1	1	-66.91053929587437	11.418864457783675	82.24512251794309	0	0	0
148	1	1	-67.85294125778809	11.440113526225606	82.57892937717686	0	0	0
149	1	1	-68.7953432197018	11.739823280500513	82.72743057371628	0	0	0
150	1	1	-69.73774518161552	11.761072348942443	83.06123743295005	0	0	0
151	1	1	-70.68014714352924	12.06078210321735	83.20973862948946	0	0	0
152	1	1	0.4896032140343183	0.8645037845134458	64.97220534741615	0	0	0
153	1	1	0.9792064280686383	1.6700232898860659	65.30601220664992	0	0	0
154	1	1	1.4688096421029584	2.361868262626316	64.77531528137024	0	0	0
155	1	1	1.9584128561372784	3.167387767998936	65.10912214060401	0	0	0
156	1	1	2.4480160701715987	3.8592327407391864	64.57842521532433	0	0	0
157	1	1	2.937619284205919	4.6647522461118065	64.9122320745581	0	0	0
158	1	1	3.4272224982402393	5.356597218852057	64.38153514927842	0	0	0
159	1	1	3.9168257122745596	6.162116724224677	64.7153420085122	0	0	0
160	1	1	4.406428926308879	6.853961696964927	64.18464508323251	0	0	0
161	1	1	4.896032140343199	7.659481202337546	64.51845194246629	0	0	0
162	1	1	5.385635354377519	8.351326175077796	63.98775501718661	0	0	0
163	1	1	5.875238568411839	9.156845680450417	64.32156187642038	0	0	0
164	1	1	6.364841782446159	9.848690653190667	63.7908649511407	0	0	0
165	1	1	6.854444996480479	10.654210158563288	64.12467181037447	0	0	0
166	1	1	7.344048210514798	11.346055131303538	63.59397488509479	0	0	0
167	1	1	7.833651424549118	12.151574636676159	63.927781744328556	0	0	0
168	1	1	8.323254638583439	12.84341960941641	63.39708481904888	0	0	0
169	1	1	8.812857852617759	13.64893911478903	63.730891678282646	0	0	0
170	1	1	9.302461066652079	14.340784087529281	63.20019475300297	0	0	0
171	1	1	9.792064280686398	15.146303592901901	63.534001612236736	0	0	0
172	1	1	10.281667494720718	15.838148565642152	63.00330468695706	0	0	0
173	1	1	10.771270708755038	16.643668071014773	63.337111546190826	0	0	0
174	1	1	11.260873922789358	17.33551304375502	62.80641462091115	0	0	0
175	1	1	11.750477136823678	18.14103254912764	63.140221480144916	0	0	0
176	1	1	12.240080350857998	18.83287752186789	62.60952455486524	0	0	0
177	1	1	12.729683564892317	19.638397027240508	62.943331414099006	0	0	0
178	1	1	13.219286778926637	20.330241999980757	62.41263448881933	0	0	0
179	1	1	13.708889992960957	21.135761505353376	62.7464413480531	0	0	0
180	1	1	14.198493206995277	21.827606478093625	62.21574442277342	0	0	0
181	1	1	14.688096421029597	22.633125983466243	62.54955128200719	0	0	0
182	1	1	15.177699635063917	23.324970956206492	62.01885435672751	0	0	0
183	1	1	15.667302849098236	24.13049046157911	62.35266121596128	0	0	0
184	1	1	16.156906063132556	24.82233543431936	61.8219642906816	0	0	0
185	1	1	16.646509277166878	25.62785493969198	62.15577114991537	0	0	0
186	1	1	17.1361124912012	26.319699912432228	61.62507422463569	0	0	0
187	1	1	17.62571570523552	27.125219417804846	61.95888108386946	0	0	0
188	1	1	18.115318919269843	27.817064390545095	61.42818415858978	0	0	0
189	1	1	18.604922133304164	28.622583895917714	61.76199101782355	0	0	0
190	1	1	19.094525347338486	29.314428868657963	61.23129409254387	0	0	0
191	1	1	19.584128561372808	30.11994837403058	61.56510095177764	0	0	0
192	1	1	20.07373177540713	30.81179334677083	61.03440402649796	0	0	0
193	1	1	20.56333498944145	31.61731285214345	61.36821088573173	0	0	0
194	1	1	21.052938203475772	32.3091578248837	60.83751396045205	0	0	0
195	1	1	21.542541417510094	33.11467733025632	61.17132081968582	0	0	0
196	1	1	22.032144631544416	33.80652230299657	60.64062389440614	0	0	0
197	1	1	22.521747845578737	34.61204180836919	60.97443075363991	0	0	0
198	1	1	23.01135105961306	35.30388678110944	60.44373382836023	0	0	0
199	1	1	23.50095427364738	36.10940628648206	60.777540687594	0	0	0
200	1	1	23.990557487681702	36.80125125922231	60.24684376231432	0	0	0
201	1	1	24.480160701716024	37.606770764594934	60.58065062154809	0	0	0
202	1	1	24.969763915750345	38.29861573733518	60.04995369626841	0	0	0
203	1	1	25.459367129784667	39.104135242707805	60.38376055550218	0	0	0
204	1	1	25.94897034381899	39.795980215448054	59.8530636302225	0	0	0
205	1	1	26.43857355785331	40.60149972082068	60.18687048945627	0	0	0
206	1	1	26.92817677188763	41.293344693560925	59.65617356417659	0	0	0
207	1	1	27.417779985921953	42.09886419893355	59.98998042341036	0	0	0
208	1	1	27.907383199956275	42.7907091716738	59.45928349813068	0	0	0
209	1	1	28.396986413990597	43.59622867704642	59.79309035736445	0	0	0
210	1	1	28.886589628024918	44.28807364978667	59.26239343208477	0	0	0
211	1	1	29.37619284205924	45.09359315515929	59.59620029131854	0	0	0
212	1	1	29.86579605609356	45.78543812789954	59.06550336603886	0	0	0
213	1	1	30.355399270127883	46.59095763327216	59.39931022527263	0	0	0
214	1	1	30.845002484162205	47.28280260601241	58.86861329999295	0	0	0
215	1	1	31.334605698196526	48.08832211138503	59.20242015922672	0	0	0
216	1	1	31.824208912230848	48.78016708412528	58.67172323394704	0	0	0
217	1	1	32.31381212626517	49.585686589497904	59.00553009318081	0	0	0
218	1	1	32.80341534029949	50.27753156223815	58.47483316790113	0	0	0
219	1	1	33.293018554333806	51.083051067610775	58.8086400271349	0	0	0
220	1	1	33.782621768368124	51.774896040351024	58.27794310185522	0	0	0
221	1	1	34.27222498240244	52.580415545723646	58.61174996108899	0	0	0
222	1	1	34.76182819643676	53.272260518463895	58.08105303580931	0	0	0
223	1	1	35.25143141047108	54.07778002383652	58.41485989504308	0	0	0
224	1	1	35.741034624505396	54.769624996576766	57.8841629697634	0	0	0
225	1	1	36.230637838539714	55.57514450194939	58.21796982899717	0	0	0
226	1	1	36.72024105257403	56.26698947468964	57.68727290371749	0	0	0
227	1	1	0.45279874787940966	-0.5490991583571294	65.78834938700973	0	0	0
228	1	1	0.905597495758821	-1.375867732171665	66.1221562462435	0	0	0
229	1	1	1.3583962436382324	-1.5001667990249896	67.0050622638344	0	0	0
230	1	1	1.8111949915176437	-2.3269353728395252	67.33886912306818	0	0	0
231	1	1	2.2639937393970553	-2.45123443969285	68.22177514065908	0	0	0
232	1	1	2.7167924872764666	-3.278003013507386	68.55558199989285	0	0	0
233	1	1	3.169591235155878	-3.4023020803607107	69.43848801748375	0	0	0
234	1	1	3.6223899830352893	-4.2290706541752465	69.77229487671752	0	0	0
235	1	1	4.075188730914701	-4.353369721028571	70.65520089430842	0	0	0
236	1	1	4.527987478794112	-5.180138294843107	70.9890077535422	0	0	0
237	1	1	4.980786226673524	-5.304437361696431	71.8719137711331	0	0	0
238	1	1	5.433584974552935	-6.131205935510967	72.20572063036687	0	0	0
239	1	1	5.886383722432346	-6.255505002364291	73.08862664795777	0	0	0
240	1	1	6.339182470311758	-7.082273576178827	73.42243350719154	0	0	0
241	1	1	6.791981218191169	-7.2065726430321515	74.30533952478244	0	0	0
242	1	1	7.24477996607058	-8.033341216846686	74.63914638401621	0	0	0
243	1	1	7.697578713949992	-8.157640283700012	75.52205240160711	0	0	0
244	1	1	8.150377461829404	-8.984408857514547	75.85585926084089	0	0	0
245	1	1	8.603176209708815	-9.108707924367872	76.73876527843179	0	0	0
246	1	1	9.055974957588226	-9.935476498182407	77.07257213766556	0	0	0
247	1	1	9.508773705467638	-10.059775565035732	77.95547815525646	0	0	0
248	1	1	9.961572453347049	-10.886544138850267	78.28928501449023	0	0	0
249	1	1	10.41437120122646	-11.010843205703592	79.17219103208113	0	0	0
250	1	1	10.867169949105872	-11.837611779518127	79.5059978913149	0	0	0
251	1	1	11.319968696985283	-11.961910846371453	80.3889039089058	0	0	0
252	1	1	11.772767444864694	-12.788679420185987	80.72271076813958	0	0	0
253	1	1	12.225566192744106	-12.912978487039313	81.60561678573048	0	0	0
254	1	1	12.678364940623517	-13.739747060853848	81.93942364496425	0	0	0
255	1	1	13.131163688502928	-13.864046127707173	82.82232966255515	0	0	0
256	1	1	13.58396243638234	-14.690814701521708	83.15613652178892	0	0	0
257	1	1	14.036761184261751	-14.815113768375033	84.03904253937982	0	0	0
258	1	1	14.489559932141162	-15.641882342189568	84.3728493986136	0	0	0
259	1	1	14.942358680020574	-15.766181409042893	85.2557554162045	0	0	0
260	1	1	15.395157427899985	-16.59294998285743	85.58956227543827	0	0	0
261	1	1	15.847956175779396	-16.717249049710755	86.47246829302917	0	0	0
262	1	1	16.300754923658808	-17.544017623525292	86.80627515226294	0	0	0
263	1	1	16.75355367153822	-17.668316690378617	87.68918116985384	0	0	0
264	1	1	17.206352419417634	-18.495085264193154	88.02298802908761	0	0	0
265	1	1	17.659151167297047	-18.61938433104648	88.90589404667851	0	0	0
266	1	1	18.11194991517646	-19.446152904861016	89.23970090591229	0	0	0
267	1	1	18.564748663055873	-19.57045197171434	90.12260692350318	0	0	0
268	1	1	19.017547410935286	-20.397220545528878	90.45641378273696	0	0	0
269	1	1	19.4703461588147	-20.521519612382203	91.33931980032786	0	0	0
270	1	1	19.923144906694112	-21.34828818619674	91.67312665956163	0	0	0
271	1	1	20.375943654573526	-21.472587253050065	92.55603267715253	0	0	0
272	1	1	20.82874240245294	-22.299355826864602	92.8898395363863	0	0	0
273	1	1	21.28154115033235	-22.423654893717927	93.7727455539772	0	0	0
274	1	1	21.734339898211765	-23.250423467532464	94.10655241321098	0	0	0
275	1	1	22.187138646091178	-23.37472253438579	94.98945843080188	0	0	0
276	1	1	22.63993739397059	-24.201491108200326	95.32326529003565	0	0	0
277	1	1	23.092736141850004	-24.32579017505365	96.20617130762655	0	0	0
278	1	1	23.545534889729417	-25.152558748868188	96.53997816686032	0	0	0
279	1	1	23.99833363760883	-25.276857815721513	97.42288418445122	0	0	0
280	1	1	24.451132385488243	-26.10362638953605	97.756691043685	0	0	0
281	1	1	24.903931133367657	-26.227925456389375	98.6395970612759	0	0	0
282	1	1	25.35672988124707	-27.054694030203912	98.97340392050967	0	0	0
283	1	1	25.809528629126483	-27.178993097057237	99.85630993810057	0	0	0
284	1	1	26.262327377005896	-28.005761670871774	100.19011679733434	0	0	0
285	1	1	26.71512612488531	-28.1300607377251	101.07302281492524	0	0	0
286	1	1	27.167924872764722	-28.956829311539636	101.40682967415901	0	0	0
287	1	1	27.620723620644135	-29.08112837839296	102.28973569174991	0	0	0
288	1	1	28.073522368523548	-29.907896952207498	102.62354255098369	0	0	0
289	1	1	28.52632111640296	-30.032196019060823	103.50644856857458	0	0	0
290	1	1	28.979119864282374	-30.85896459287536	103.84025542780836	0	0	0
291	1	1	29.431918612161788	-30.983263659728685	104.72316144539926	0	0	0
292	1	1	29.8847173600412	-31.81003223354322	105.05696830463303	0	0	0
293	1	1	30.337516107920614	-31.934331300396547	105.93987432222393	0	0	0
294	1	1	30.790314855800027	-32.761099874211084	106.2736811814577	0	0	0
295	1	1	31.24311360367944	-32.88539894106441	107.1565871990486	0	0	0
296	1	1	31.695912351558853	-33.71216751487894	107.49039405828238	0	0	0
297	1	1	32.148711099438266	-33.83646658173227	108.37330007587327	0	0	0
298	1	1	32.60150984731768	-34.6632351555468	108.70710693510705	0	0	0
299	1	1	33.05430859519709	-34.787534222400126	109.59001295269795	0	0	0
300	1	1	33.507107343076505	-35.61430279621466	109.92381981193172	0	0	0
301	1	1	33.95990609095592	-35.738601863067984	110.80672582952262	0	0	0

Bonds

1	1	1	2
2	1	2	3
3	1	3	4
4	1	4	5
5	1	5	6
6	1	6	7
7	1	7	8
8	1	8	9
9	1	9	10
10	1	10	11
11	1	11	12
12	1	12	13
13	1	13	14
14	1	14	15
15	1	15	16
16	1	16	17
17	1	17	18
18	1	18	19
19	1	19	20
20	1	20	21
21	1	21	22
22	1	22	23
23	1	23	24
24	1	24	25
25	1	25	26
26	1	26	27
27	1	27	28
28	1	28	29
29	1	29	30
30	1	30	31
31	1	31	32
32	1	32	33
33	1	33	34
34	1	34	35
35	1	35	36
36	1	36	37
37	1	37	38
38	1	38	39
39	1	39	40
40	1	40	41
41	1	41	42
42	1	42	43
43	1	43	44
44	1	44	45
45	1	45	46
46	1	46	47
47	1	47	48
48	1	48	49
49	1	49	50
50	1	50	51
51	1	51	52
52	1	52	53
53	1	53	54
54	1	54	55
55	1	55	56
56	1	56	57
57	1	57	58
58	1	58	59
59	1	59	60
60	1	60	61
61	1	61	62
62	1	62	63
63	1	63	64
64	1	64	65
65	1	65	66
66	1	66	67
67	1	67	68
68	1	68	69
69	1	69	70
70	1	70	71
71	1	71	72
72	1	72	73
73	1	73	74
74	1	74	75
75	1	75	76
76	1	76	77
77	1	77	78
78	1	78	79
79	1	79	80
80	1	80	81
81	1	81	82
82	1	82	83
83	1	83	84
84	1	84	85
85	1	85	86
86	1	86	87
87	1	87	88
88	1	88	89
89	1	89	90
90	1	90	91
91	1	91	92
92	1	92	93
93	1	93	94
94	1	94	95
95	1	95	96
96	1	96	97
97	1	97	98
98	1	98	99
99	1	99	100
100	1	100	101
101	1	101	102
102	1	102	103
103	1	103	104
104	1	104	105
105	1	105	106
106	1	106	107
107	1	107	108
108	1	108	109
109	1	109	110
110	1	110	111
111	1	111	112
112	1	112	113
113	1	113	114
114	1	114	115
115	1	115	116
116	1	116	117
117	1	117	118
118	1	118	119
119	1	119	120
120	1	120	121
121	1	121	122
122	1	122	123
123	1	123	124
124	1	124	125
125	1	125	126
126	1	126	127
127	1	127	128
128	1	128	129
129	1	129	130
130	1	130	131
131	1	131	132
132	1	132	133
133	1	133	134
134	1	134	135
135	1	135	136
136	1	136	137
137	1	137	138
138	1	138	139
139	1	139	140
140	1	140	141
141	1	141	142
142	1	142	143
143	1	143	144
144	1	144	145
145	1	145	146
146	1	146	147
147	1	147	148
148	1	148	149
149	1	149	150
150	1	150	151
151	1	76	152
152	1	152	153
153	1	153	154
154	1	154	155
155	1	155	156
156	1	156	157
157	1	157	158
158	1	158	159
159	1	159	160
160	1	160	161
161	1	161	162
162	1	162	163
163	1	163	164
164	1	164	165
165	1	165	166
166	1	166	167
167	1	167	168
168	1	168	169
169	1	169	170
170	1	170	171
171	1	171	172
172	1	172	173
173	1	173	174
174	1	174	175
175	1	175	176
176	1	176	177
177	1	177	178
178	1	178	179
179	1	179	180
180	1	180	181
181	1	181	182
182	1	182	183
183	1	183	184
184	1	184	185
185	1	185	186
186	1	186	187
187	1	187	188
188	1	188	189
189	1	189	190
190	1	190	191
191	1	191	192
192	1	192	193
193	1	193	194
194	1	194	195
195	1	195	196
196	1	196	197
197	1	197	198
198	1	198	199
199	1	199	200
200	1	200	201
201	1	201	202
202	1	202	203
203	1	203	204
204	1	204	205
205	1	205	206
206	1	206	207
207	1	207	208
208	1	208	209
209	1	209	210
210	1	210	211
211	1	211	212
212	1	212	213
213	1	213	214
214	1	214	215
215	1	215	216
216	1	216	217
217	1	217	218
218	1	218	219
219	1	219	220
220	1	220	221
221	1	221	222
222	1	222	223
223	1	223	224
224	1	224	225
225	1	225	226
226	1	76	227
227	1	227	228
228	1	228	229
229	1	229	230
230	1	230	231
231	1	231	232
232	1	232	233
233	1	233	234
234	1	234	235
235	1	235	236
236	1	236	237
237	1	237	238
238	1	238	239
239	1	239	240
240	1	240	241
241	1	241	242
242	1	242	243
243	1	243	244
244	1	244	245
245	1	245	246
246	1	246	247
247	1	247	248
248	1	248	249
249	1	249	250
250	1	250	251
251	1	251	252
252	1	252	253
253	1	253	254
254	1	254	255
255	1	255	256
256	1	256	257
257	1	257	258
258	1	258	259
259	1	259	260
260	1	260	261
261	1	261	262
262	1	262	263
263	1	263	264
264	1	264	265
265	1	265	266
266	1	266	267
267	1	267	268
268	1	268	269
269	1	269	270
270	1	270	271
271	1	271	272
272	1	272	273
273	1	273	274
274	1	274	275
275	1	275	276
276	1	276	277
277	1	277	278
278	1	278	279
279	1	279	280
280	1	280	281
281	1	281	282
282	1	282	283
283	1	283	284
284	1	284	285
285	1	285	286
286	1	286	287
287	1	287	288
288	1	288	289
289	1	289	290
290	1	290	291
291	1	291	292
292	1	292	293
293	1	293	294
294	1	294	295
295	1	295	296
296	1	296	297
297	1	297	298
298	1	298	299
299	1	299	300
300	1	300	301

Angles

1	1	1	2	3
2	1	2	3	4
3	1	3	4	5
4	1	4	5	6
5	1	5	6	7
6	1	6	7	8
7	1	7	8	9
8	1	8	9	10
9	1	9	10	11
10	1	10	11	12
11	1	11	12	13
12	1	12	13	14
13	1	13	14	15
14	1	14	15	16
15	1	15	16	17
16	1	16	17	18
17	1	17	18	19
18	1	18	19	20
19	1	19	20	21
20	1	20	21	22
21	1	21	22	23
22	1	22	23	24
23	1	23	24	25
24	1	24	25	26
25	1	25	26	27
26	1	26	27	28
27	1	27	28	29
28	1	28	29	30
29	1	29	30	31
30	1	30	31	32
31	1	31	32	33
32	1	32	33	34
33	1	33	34	35
34	1	34	35	36
35	1	35	36	37
36	1	36	37	38
37	1	37	38	39
38	1	38	39	40
39	1	39	40	41
40	1	40	41	42
41	1	41	42	43
42	1	42	43	44
43	1	43	44	45
44	1	44	45	46
45	1	45	46	47
46	1	46	47	48
47	1	47	48	49
48	1	48	49	50
49	1	49	50	51
50	1	50	51	52
51	1	51	52	53
52	1	52	53	54
53	1	53	54	55
54	1	54	55	56
55	1	55	56	57
56	1	56	57	58
57	1	57	58	59
58	1	58	59	60
59	1	59	60	61
60	1	60	61	62
61	1	61	62	63
62	1	62	63	64
63	1	63	64	65
64	1	64	65	66
65	1	65	66	67
66	1	66	67	68
67	1	67	68	69
68	1	68	69	70
69	1	69	70	71
70	1	70	71	72
71	1	71	72	73
72	1	72	73	74
73	1	73	74	75
74	1	74	75	76
75	1	76	77	78
76	1	77	78	79
77	1	78	79	80
78	1	79	80	81
79	1	80	81	82
80	1	81	82	83
81	1	82	83	84
82	1	83	84	85
83	1	84	85	86
84	1	85	86	87
85	1	86	87	88
86	1	87	88	89
87	1	88	89	90
88	1	89	90	91
89	1	90	91	92
90	1	91	92	93
91	1	92	93	94
92	1	93	94	95
93	1	94	95	96
94	1	95	96	97
95	1	96	97	98
96	1	97	98	99
97	1	98	99	100
98	1	99	100	101
99	1	100	101	102
100	1	101	102	103
101	1	102	103	104
102	1	103	104	105
103	1	104	105	106
104	1	105	106	107
105	1	106	107	108
106	1	107	108	109
107	1	108	109	110
108	1	109	110	111
109	1	110	111	112
110	1	111	112	113
111	1	112	113	114
112	1	113	114	115
113	1	114	115	116
114	1	115	116	117
115	1	116	117	118
116	1	117	118	119
117	1	118	119	120
118	1	119	120	121
119	1	120	121	122
120	1	121	122	123
121	1	122	123	124
122	1	123	124	125
123	1	124	125	126
124	1	125	126	127
125	1	126	127	128
126	1	127	128	129
127	1	128	129	130
128	1	129	130	131
129	1	130	131	132
130	1	131	132	133
131	1	132	133	134
132	1	133	134	135
133	1	134	135	136
134	1	135	136	137
135	1	136	137	138
136	1	137	138	139
137	1	138	139	140
138	1	139	140	141
139	1	140	141	142
140	1	141	142	143
141	1	142	143	144
142	1	143	144	145
143	1	144	145	146
144	1	145	146	147
145	1	146	147	148
146	1	147	148	149
147	1	148	149	150
148	1	149	150	151
149	1	76	152	153
150	1	152	153	154
151	1	153	154	155
152	1	154	155	156
153	1	155	156	157
154	1	156	157	158
155	1	157	158	159
156	1	158	159	160
157	1	159	160	161
158	1	160	161	162
159	1	161	162	163
160	1	162	163	164
161	1	163	164	165
162	1	164	165	166
163	1	165	166	167
164	1	166	167	168
165	1	167	168	169
166	1	168	169	170
167	1	169	170	171
168	1	170	171	172
169	1	171	172	173
170	1	172	173	174
171	1	173	174	175
172	1	174	175	176
173	1	175	176	177
174	1	176	177	178
175	1	177	178	179
176	1	178	179	180
177	1	179	180	181
178	1	180	181	182
179	1	181	182	183
180	1	182	183	184
181	1	183	184	185
182	1	184	185	186
183	1	185	186	187
184	1	186	187	188
185	1	187	188	189
186	1	188	189	190
187	1	189	190	191
188	1	190	191	192
189	1	191	192	193
190	1	192	193	194
191	1	193	194	195
192	1	194	195	196
193	1	195	196	197
194	1	196	197	198
195	1	197	198	199
196	1	198	199	200
197	1	199	200	201
198	1	200	201	202
199	1	201	202	203
200	1	202	203	204
201	1	203	204	205
202	1	204	205	206
203	1	205	206	207
204	1	206	207	208
205	1	207	208	209
206	1	208	209	210
207	1	209	210	211
208	1	210	211	212
209	1	211	212	213
210	1	212	213	214
211	1	213	214	215
212	1	214	215	216
213	1	215	216	217
214	1	216	217	218
215	1	217	218	219
216	1	218	219	220
217	1	219	220	221
218	1	220	221	222
219	1	221	222	223
220	1	222	223	224
221	1	223	224	225
222	1	224	225	226
223	1	76	152	153
224	1	152	153	154
225	1	153	154	155
226	1	154	155	156
227	1	155	156	157
228	1	156	157	158
229	1	157	158	159
230	1	158	159	160
231	1	159	160	161
232	1	160	161	162
233	1	161	162	163
234	1	162	163	164
235	1	163	164	165
236	1	164	165	166
237	1	165	166	167
238	1	166	167	168
239	1	167	168	169
240	1	168	169	170
241	1	169	170	171
242	1	170	171	172
243	1	171	172	173
244	1	172	173	174
245	1	173	174	175
246	1	174	175	176
247	1	175	176	177
248	1	176	177	178
249	1	177	178	179
250	1	178	179	180
251	1	179	180	181
252	1	180	181	182
253	1	181	182	183
254	1	182	183	184
255	1	183	184	185
256	1	184	185	186
257	1	185	186	187
258	1	186	187	188
259	1	187	188	189
260	1	188	189	190
261	1	189	190	191
262	1	190	191	192
263	1	191	192	193
264	1	192	193	194
265	1	193	194	195
266	1	194	195	196
267	1	195	196	197
268	1	196	197	198
269	1	197	198	199
270	1	198	199	200
271	1	199	200	201
272	1	200	201	202
273	1	201	202	203
274	1	202	203	204
275	1	203	204	205
276	1	204	205	206
277	1	205	206	207
278	1	206	207	208
279	1	207	208	209
280	1	208	209	210
281	1	209	210	211
282	1	210	211	212
283	1	211	212	213
284	1	212	213	214
285	1	213	214	215
286	1	214	215	216
287	1	215	216	217
288	1	216	217	218
289	1	217	218	219
290	1	218	219	220
291	1	219	220	221
292	1	220	221	222
293	1	221	222	223
294	1	222	223	224
295	1	223	224	225
296	1	224	225	226
297	1	75	76	77
298	1	75	76	152
299	1	75	76	227
300	1	77	76	152
301	1	77	76	227
302	1	152	76	227
