bb201nuc1bl100bn4d30tot400

401 atoms
400 bonds
402 angles

1 atom types
1 bond types
1 angle types

-1000 1000 xlo xhi
-1000 1000 ylo yhi
-1000 1000 zlo zhi

Masses

1 1

Atoms

1	1	1	0.0	0.0	0.0	0	0	0
2	1	1	0.0	0.0	1.0	0	0	0
3	1	1	0.0	-0.49999999999999994	1.8660254037844388	0	0	0
4	1	1	0.0	0.0	2.7320508075688776	0	0	0
5	1	1	0.0	-0.49999999999999994	3.5980762113533165	0	0	0
6	1	1	0.0	0.0	4.464101615137755	0	0	0
7	1	1	0.0	-0.49999999999999994	5.330127018922194	0	0	0
8	1	1	0.0	0.0	6.196152422706632	0	0	0
9	1	1	0.0	-0.49999999999999994	7.06217782649107	0	0	0
10	1	1	0.0	0.0	7.928203230275509	0	0	0
11	1	1	0.0	-0.49999999999999994	8.794228634059948	0	0	0
12	1	1	0.0	0.0	9.660254037844387	0	0	0
13	1	1	0.0	-0.49999999999999994	10.526279441628827	0	0	0
14	1	1	0.0	0.0	11.392304845413266	0	0	0
15	1	1	0.0	-0.49999999999999994	12.258330249197705	0	0	0
16	1	1	0.0	0.0	13.124355652982144	0	0	0
17	1	1	0.0	-0.49999999999999994	13.990381056766584	0	0	0
18	1	1	0.0	0.0	14.856406460551023	0	0	0
19	1	1	0.0	-0.49999999999999994	15.722431864335462	0	0	0
20	1	1	0.0	0.0	16.5884572681199	0	0	0
21	1	1	0.0	-0.49999999999999994	17.454482671904337	0	0	0
22	1	1	0.0	0.0	18.320508075688775	0	0	0
23	1	1	0.0	-0.49999999999999994	19.186533479473212	0	0	0
24	1	1	0.0	0.0	20.05255888325765	0	0	0
25	1	1	0.0	-0.49999999999999994	20.918584287042087	0	0	0
26	1	1	0.0	0.0	21.784609690826525	0	0	0
27	1	1	0.0	-0.49999999999999994	22.650635094610962	0	0	0
28	1	1	0.0	0.0	23.5166604983954	0	0	0
29	1	1	0.0	-0.49999999999999994	24.382685902179837	0	0	0
30	1	1	0.0	0.0	25.248711305964274	0	0	0
31	1	1	0.0	-0.49999999999999994	26.114736709748712	0	0	0
32	1	1	0.0	0.0	26.98076211353315	0	0	0
33	1	1	0.0	-0.49999999999999994	27.846787517317587	0	0	0
34	1	1	0.0	0.0	28.712812921102024	0	0	0
35	1	1	0.0	-0.49999999999999994	29.578838324886462	0	0	0
36	1	1	0.0	0.0	30.4448637286709	0	0	0
37	1	1	0.0	-0.49999999999999994	31.310889132455337	0	0	0
38	1	1	0.0	0.0	32.17691453623978	0	0	0
39	1	1	0.0	-0.49999999999999994	33.04293994002422	0	0	0
40	1	1	0.0	0.0	33.90896534380866	0	0	0
41	1	1	0.0	-0.49999999999999994	34.7749907475931	0	0	0
42	1	1	0.0	0.0	35.64101615137754	0	0	0
43	1	1	0.0	-0.49999999999999994	36.50704155516198	0	0	0
44	1	1	0.0	0.0	37.373066958946424	0	0	0
45	1	1	0.0	-0.49999999999999994	38.239092362730865	0	0	0
46	1	1	0.0	0.0	39.105117766515306	0	0	0
47	1	1	0.0	-0.49999999999999994	39.97114317029975	0	0	0
48	1	1	0.0	0.0	40.83716857408419	0	0	0
49	1	1	0.0	-0.49999999999999994	41.70319397786863	0	0	0
50	1	1	0.0	0.0	42.56921938165307	0	0	0
51	1	1	0.0	-0.49999999999999994	43.43524478543751	0	0	0
52	1	1	0.0	0.0	44.30127018922195	0	0	0
53	1	1	0.0	-0.49999999999999994	45.16729559300639	0	0	0
54	1	1	0.0	0.0	46.033320996790835	0	0	0
55	1	1	0.0	-0.49999999999999994	46.899346400575276	0	0	0
56	1	1	0.0	0.0	47.76537180435972	0	0	0
57	1	1	0.0	-0.49999999999999994	48.63139720814416	0	0	0
58	1	1	0.0	0.0	49.4974226119286	0	0	0
59	1	1	0.0	-0.49999999999999994	50.36344801571304	0	0	0
60	1	1	0.0	0.0	51.22947341949748	0	0	0
61	1	1	0.0	-0.49999999999999994	52.09549882328192	0	0	0
62	1	1	0.0	0.0	52.96152422706636	0	0	0
63	1	1	0.0	-0.49999999999999994	53.827549630850804	0	0	0
64	1	1	0.0	0.0	54.693575034635245	0	0	0
65	1	1	0.0	-0.49999999999999994	55.559600438419686	0	0	0
66	1	1	0.0	0.0	56.42562584220413	0	0	0
67	1	1	0.0	-0.49999999999999994	57.29165124598857	0	0	0
68	1	1	0.0	0.0	58.15767664977301	0	0	0
69	1	1	0.0	-0.49999999999999994	59.02370205355745	0	0	0
70	1	1	0.0	0.0	59.88972745734189	0	0	0
71	1	1	0.0	-0.49999999999999994	60.75575286112633	0	0	0
72	1	1	0.0	0.0	61.62177826491077	0	0	0
73	1	1	0.0	-0.49999999999999994	62.487803668695214	0	0	0
74	1	1	0.0	0.0	63.353829072479655	0	0	0
75	1	1	0.0	-0.49999999999999994	64.21985447626409	0	0	0
76	1	1	0.0	0.0	65.08587988004852	0	0	0
77	1	1	0.0	-0.49999999999999994	65.95190528383296	0	0	0
78	1	1	0.0	0.0	66.81793068761739	0	0	0
79	1	1	0.0	-0.49999999999999994	67.68395609140183	0	0	0
80	1	1	0.0	0.0	68.54998149518626	0	0	0
81	1	1	0.0	-0.49999999999999994	69.41600689897069	0	0	0
82	1	1	0.0	0.0	70.28203230275513	0	0	0
83	1	1	0.0	-0.49999999999999994	71.14805770653956	0	0	0
84	1	1	0.0	0.0	72.014083110324	0	0	0
85	1	1	0.0	-0.49999999999999994	72.88010851410843	0	0	0
86	1	1	0.0	0.0	73.74613391789286	0	0	0
87	1	1	0.0	-0.49999999999999994	74.6121593216773	0	0	0
88	1	1	0.0	0.0	75.47818472546173	0	0	0
89	1	1	0.0	-0.49999999999999994	76.34421012924616	0	0	0
90	1	1	0.0	0.0	77.2102355330306	0	0	0
91	1	1	0.0	-0.49999999999999994	78.07626093681503	0	0	0
92	1	1	0.0	0.0	78.94228634059947	0	0	0
93	1	1	0.0	-0.49999999999999994	79.8083117443839	0	0	0
94	1	1	0.0	0.0	80.67433714816833	0	0	0
95	1	1	0.0	-0.49999999999999994	81.54036255195277	0	0	0
96	1	1	0.0	0.0	82.4063879557372	0	0	0
97	1	1	0.0	-0.49999999999999994	83.27241335952164	0	0	0
98	1	1	0.0	0.0	84.13843876330607	0	0	0
99	1	1	0.0	-0.49999999999999994	85.0044641670905	0	0	0
100	1	1	0.0	0.0	85.87048957087494	0	0	0
101	1	1	0.0	-0.49999999999999994	86.73651497465937	0	0	0
102	1	1	0.08448085694837097	-1.4799698316735106	86.55617608861687	0	0	0
103	1	1	0.1689617138967423	-2.2384791578238827	85.91001311617711	0	0	0
104	1	1	0.2534425708451137	-3.1773273700167595	86.24381997541087	0	0	0
105	1	1	0.33792342779348505	-3.935836696167131	85.59765700297112	0	0	0
106	1	1	0.42240428474185643	-4.874684908360008	85.93146386220488	0	0	0
107	1	1	0.5068851416902278	-5.63319423451038	85.28530088976513	0	0	0
108	1	1	0.5913659986385992	-6.572042446703256	85.61910774899889	0	0	0
109	1	1	0.6758468555869706	-7.330551772853628	84.97294477655913	0	0	0
110	1	1	0.7603277125353419	-8.269399985046505	85.30675163579289	0	0	0
111	1	1	0.8448085694837133	-9.027909311196877	84.66058866335314	0	0	0
112	1	1	0.9292894264320847	-9.966757523389754	84.9943955225869	0	0	0
113	1	1	1.013770283380456	-10.725266849540127	84.34823255014715	0	0	0
114	1	1	1.0982511403288273	-11.664115061733003	84.6820394093809	0	0	0
115	1	1	1.1827319972771986	-12.422624387883376	84.03587643694115	0	0	0
116	1	1	1.2672128542255698	-13.361472600076253	84.36968329617491	0	0	0
117	1	1	1.351693711173941	-14.119981926226625	83.72352032373516	0	0	0
118	1	1	1.4361745681223124	-15.058830138419502	84.05732718296892	0	0	0
119	1	1	1.5206554250706836	-15.817339464569875	83.41116421052917	0	0	0
120	1	1	1.605136282019055	-16.75618767676275	83.74497106976293	0	0	0
121	1	1	1.6896171389674262	-17.51469700291312	83.09880809732317	0	0	0
122	1	1	1.7740979959157974	-18.453545215105997	83.43261495655693	0	0	0
123	1	1	1.8585788528641687	-19.212054541256368	82.78645198411718	0	0	0
124	1	1	1.94305970981254	-20.150902753449245	83.12025884335094	0	0	0
125	1	1	2.027540566760911	-20.909412079599615	82.47409587091119	0	0	0
126	1	1	2.1120214237092827	-21.848260291792492	82.80790273014495	0	0	0
127	1	1	2.196502280657654	-22.606769617942863	82.16173975770519	0	0	0
128	1	1	2.2809831376060257	-23.54561783013574	82.49554661693895	0	0	0
129	1	1	2.365463994554397	-24.30412715628611	81.8493836444992	0	0	0
130	1	1	2.4499448515027686	-25.242975368478987	82.18319050373296	0	0	0
131	1	1	2.53442570845114	-26.001484694629358	81.5370275312932	0	0	0
132	1	1	2.6189065653995116	-26.940332906822235	81.87083439052697	0	0	0
133	1	1	2.703387422347883	-27.698842232972606	81.22467141808721	0	0	0
134	1	1	2.7878682792962546	-28.637690445165482	81.55847827732097	0	0	0
135	1	1	2.872349136244626	-29.396199771315853	80.91231530488122	0	0	0
136	1	1	2.9568299931929976	-30.33504798350873	81.24612216411498	0	0	0
137	1	1	3.041310850141369	-31.0935573096591	80.59995919167523	0	0	0
138	1	1	3.1257917070897405	-32.03240552185198	80.93376605090899	0	0	0
139	1	1	3.210272564038112	-32.79091484800235	80.28760307846923	0	0	0
140	1	1	3.2947534209864835	-33.729763060195225	80.62140993770299	0	0	0
141	1	1	3.379234277934855	-34.4882723863456	79.97524696526324	0	0	0
142	1	1	3.4637151348832265	-35.42712059853848	80.309053824497	0	0	0
143	1	1	3.548195991831598	-36.185629924688854	79.66289085205725	0	0	0
144	1	1	3.6326768487799694	-37.124478136881734	79.996697711291	0	0	0
145	1	1	3.717157705728341	-37.88298746303211	79.35053473885125	0	0	0
146	1	1	3.8016385626767124	-38.82183567522499	79.68434159808501	0	0	0
147	1	1	3.886119419625084	-39.58034500137536	79.03817862564526	0	0	0
148	1	1	3.9706002765734554	-40.51919321356824	79.37198548487902	0	0	0
149	1	1	4.055081133521827	-41.27770253971862	78.72582251243927	0	0	0
150	1	1	4.139561990470198	-42.2165507519115	79.05962937167303	0	0	0
151	1	1	4.224042847418569	-42.97506007806187	78.41346639923327	0	0	0
152	1	1	4.30852370436694	-43.91390829025475	78.74727325846703	0	0	0
153	1	1	4.393004561315311	-44.67241761640513	78.10111028602728	0	0	0
154	1	1	4.477485418263682	-45.61126582859801	78.43491714526104	0	0	0
155	1	1	4.561966275212053	-46.36977515474838	77.78875417282129	0	0	0
156	1	1	4.646447132160424	-47.30862336694126	78.12256103205505	0	0	0
157	1	1	4.730927989108795	-48.06713269309164	77.47639805961529	0	0	0
158	1	1	4.815408846057166	-49.00598090528452	77.81020491884905	0	0	0
159	1	1	4.899889703005537	-49.76449023143489	77.1640419464093	0	0	0
160	1	1	4.984370559953908	-50.70333844362777	77.49784880564306	0	0	0
161	1	1	5.068851416902279	-51.461847769778146	76.8516858332033	0	0	0
162	1	1	5.15333227385065	-52.400695981971026	77.18549269243707	0	0	0
163	1	1	5.237813130799021	-53.1592053081214	76.53932971999731	0	0	0
164	1	1	5.3222939877473925	-54.09805352031428	76.87313657923107	0	0	0
165	1	1	5.4067748446957635	-54.856562846464655	76.22697360679132	0	0	0
166	1	1	5.491255701644135	-55.795411058657535	76.56078046602508	0	0	0
167	1	1	5.575736558592506	-56.55392038480791	75.91461749358533	0	0	0
168	1	1	5.660217415540877	-57.49276859700079	76.24842435281909	0	0	0
169	1	1	5.744698272489248	-58.251277923151164	75.60226138037933	0	0	0
170	1	1	5.829179129437619	-59.190126135344045	75.93606823961309	0	0	0
171	1	1	5.91365998638599	-59.94863546149442	75.28990526717334	0	0	0
172	1	1	5.998140843334361	-60.8874836736873	75.6237121264071	0	0	0
173	1	1	6.082621700282732	-61.645992999837674	74.97754915396735	0	0	0
174	1	1	6.167102557231103	-62.584841212030554	75.3113560132011	0	0	0
175	1	1	6.251583414179474	-63.34335053818093	74.66519304076135	0	0	0
176	1	1	6.336064271127845	-64.28219875037381	74.99899989999511	0	0	0
177	1	1	6.420545128076216	-65.04070807652418	74.35283692755536	0	0	0
178	1	1	6.505025985024587	-65.97955628871706	74.68664378678912	0	0	0
179	1	1	6.589506841972958	-66.73806561486744	74.04048081434937	0	0	0
180	1	1	6.673987698921329	-67.67691382706032	74.37428767358313	0	0	0
181	1	1	6.7584685558697	-68.43542315321069	73.72812470114337	0	0	0
182	1	1	6.842949412818071	-69.37427136540357	74.06193156037713	0	0	0
183	1	1	6.927430269766442	-70.13278069155395	73.41576858793738	0	0	0
184	1	1	7.011911126714813	-71.07162890374683	73.74957544717114	0	0	0
185	1	1	7.096391983663184	-71.8301382298972	73.10341247473139	0	0	0
186	1	1	7.180872840611555	-72.76898644209008	73.43721933396515	0	0	0
187	1	1	7.265353697559926	-73.52749576824046	72.79105636152539	0	0	0
188	1	1	7.3498345545082975	-74.46634398043334	73.12486322075915	0	0	0
189	1	1	7.4343154114566685	-75.22485330658371	72.4787002483194	0	0	0
190	1	1	7.51879626840504	-76.16370151877659	72.81250710755316	0	0	0
191	1	1	7.603277125353411	-76.92221084492697	72.1663441351134	0	0	0
192	1	1	7.687757982301782	-77.86105905711985	72.50015099434717	0	0	0
193	1	1	7.772238839250153	-78.61956838327022	71.85398802190741	0	0	0
194	1	1	7.856719696198524	-79.5584165954631	72.18779488114117	0	0	0
195	1	1	7.941200553146895	-80.31692592161347	71.54163190870142	0	0	0
196	1	1	8.025681410095267	-81.25577413380636	71.87543876793518	0	0	0
197	1	1	8.110162267043638	-82.01428345995673	71.22927579549543	0	0	0
198	1	1	8.194643123992009	-82.95313167214961	71.56308265472919	0	0	0
199	1	1	8.27912398094038	-83.71164099829998	70.91691968228943	0	0	0
200	1	1	8.36360483788875	-84.65048921049286	71.25072654152319	0	0	0
201	1	1	8.448085694837122	-85.40899853664324	70.60456356908344	0	0	0
202	1	1	-0.8553068305308194	-0.32373087129985206	87.22373096363614	0	0	0
203	1	1	-1.7106136610616423	-0.41468532243095785	87.73380695157006	0	0	0
204	1	1	-2.565920491592465	-0.018423784585297198	88.06761381080382	0	0	0
205	1	1	-3.421227322123288	-0.109378235716403	88.57768979873774	0	0	0
206	1	1	-4.276534152654111	0.28688330212925767	88.9114966579715	0	0	0
207	1	1	-5.131840983184935	0.19592885099815188	89.42157264590541	0	0	0
208	1	1	-5.987147813715758	0.5921903888438125	89.75537950513917	0	0	0
209	1	1	-6.8424546442465815	0.5012359377127067	90.26545549307309	0	0	0
210	1	1	-7.697761474777405	0.8974974755583673	90.59926235230685	0	0	0
211	1	1	-8.553068305308228	0.8065430244272616	91.10933834024077	0	0	0
212	1	1	-9.408375135839051	1.2028045622729222	91.44314519947453	0	0	0
213	1	1	-10.263681966369875	1.1118501111418164	91.95322118740845	0	0	0
214	1	1	-11.118988796900698	1.508111648987477	92.2870280466422	0	0	0
215	1	1	-11.974295627431522	1.4171571978563713	92.79710403457612	0	0	0
216	1	1	-12.829602457962345	1.813418735702032	93.13091089380988	0	0	0
217	1	1	-13.684909288493168	1.7224642845709262	93.6409868817438	0	0	0
218	1	1	-14.540216119023992	2.118725822416587	93.97479374097756	0	0	0
219	1	1	-15.395522949554815	2.027771371285481	94.48486972891148	0	0	0
220	1	1	-16.25082978008564	2.4240329091311414	94.81867658814524	0	0	0
221	1	1	-17.10613661061646	2.3330784580000357	95.32875257607915	0	0	0
222	1	1	-17.96144344114728	2.729339995845696	95.66255943531291	0	0	0
223	1	1	-18.816750271678103	2.6383855447145903	96.17263542324683	0	0	0
224	1	1	-19.672057102208925	3.0346470825602507	96.50644228248059	0	0	0
225	1	1	-20.527363932739746	2.943692631429145	97.01651827041451	0	0	0
226	1	1	-21.382670763270568	3.3399541692748054	97.35032512964827	0	0	0
227	1	1	-22.23797759380139	3.2489997181436996	97.86040111758219	0	0	0
228	1	1	-23.09328442433221	3.64526125598936	98.19420797681595	0	0	0
229	1	1	-23.948591254863032	3.5543068048582542	98.70428396474986	0	0	0
230	1	1	-24.803898085393854	3.9505683427039147	99.03809082398362	0	0	0
231	1	1	-25.659204915924676	3.859613891572809	99.54816681191754	0	0	0
232	1	1	-26.514511746455497	4.255875429418469	99.8819736711513	0	0	0
233	1	1	-27.36981857698632	4.1649209782873635	100.39204965908522	0	0	0
234	1	1	-28.22512540751714	4.561182516133024	100.72585651831898	0	0	0
235	1	1	-29.080432238047962	4.470228065001918	101.2359325062529	0	0	0
236	1	1	-29.935739068578783	4.866489602847579	101.56973936548665	0	0	0
237	1	1	-30.791045899109605	4.775535151716473	102.07981535342057	0	0	0
238	1	1	-31.646352729640427	5.171796689562133	102.41362221265433	0	0	0
239	1	1	-32.50165956017125	5.0808422384310274	102.92369820058825	0	0	0
240	1	1	-33.35696639070207	5.477103776276688	103.25750505982201	0	0	0
241	1	1	-34.21227322123289	5.386149325145582	103.76758104775593	0	0	0
242	1	1	-35.06758005176371	5.7824108629912425	104.10138790698969	0	0	0
243	1	1	-35.922886882294534	5.691456411860137	104.6114638949236	0	0	0
244	1	1	-36.778193712825356	6.087717949705797	104.94527075415736	0	0	0
245	1	1	-37.63350054335618	5.996763498574691	105.45534674209128	0	0	0
246	1	1	-38.488807373887	6.393025036420352	105.78915360132504	0	0	0
247	1	1	-39.34411420441782	6.302070585289246	106.29922958925896	0	0	0
248	1	1	-40.19942103494864	6.6983321231349064	106.63303644849272	0	0	0
249	1	1	-41.054727865479464	6.607377672003801	107.14311243642663	0	0	0
250	1	1	-41.910034696010285	7.003639209849461	107.4769192956604	0	0	0
251	1	1	-42.76534152654111	6.912684758718355	107.98699528359431	0	0	0
252	1	1	-43.62064835707193	7.308946296564016	108.32080214282807	0	0	0
253	1	1	-44.47595518760275	7.21799184543291	108.83087813076199	0	0	0
254	1	1	-45.33126201813357	7.61425338327857	109.16468498999575	0	0	0
255	1	1	-46.18656884866439	7.523298932147465	109.67476097792967	0	0	0
256	1	1	-47.041875679195215	7.919560469993125	110.00856783716343	0	0	0
257	1	1	-47.897182509726036	7.828606018862019	110.51864382509734	0	0	0
258	1	1	-48.75248934025686	8.22486755670768	110.8524506843311	0	0	0
259	1	1	-49.60779617078768	8.133913105576575	111.36252667226502	0	0	0
260	1	1	-50.4631030013185	8.530174643422235	111.69633353149878	0	0	0
261	1	1	-51.31840983184932	8.43922019229113	112.2064095194327	0	0	0
262	1	1	-52.173716662380144	8.83548173013679	112.54021637866646	0	0	0
263	1	1	-53.029023492910966	8.744527279005684	113.05029236660037	0	0	0
264	1	1	-53.88433032344179	9.140788816851344	113.38409922583413	0	0	0
265	1	1	-54.73963715397261	9.049834365720239	113.89417521376805	0	0	0
266	1	1	-55.59494398450343	9.4460959035659	114.22798207300181	0	0	0
267	1	1	-56.45025081503425	9.355141452434793	114.73805806093573	0	0	0
268	1	1	-57.305557645565074	9.751402990280454	115.07186492016949	0	0	0
269	1	1	-58.160864476095895	9.660448539149348	115.5819409081034	0	0	0
270	1	1	-59.01617130662672	10.056710076995008	115.91574776733717	0	0	0
271	1	1	-59.87147813715754	9.965755625863903	116.42582375527108	0	0	0
272	1	1	-60.72678496768836	10.362017163709563	116.75963061450484	0	0	0
273	1	1	-61.58209179821918	10.271062712578457	117.26970660243876	0	0	0
274	1	1	-62.43739862875	10.667324250424118	117.60351346167252	0	0	0
275	1	1	-63.292705459280825	10.576369799293012	118.11358944960644	0	0	0
276	1	1	-64.14801228981165	10.972631337138672	118.4473963088402	0	0	0
277	1	1	-65.00331912034247	10.881676886007567	118.95747229677411	0	0	0
278	1	1	-65.85862595087329	11.277938423853227	119.29127915600787	0	0	0
279	1	1	-66.71393278140411	11.186983972722121	119.80135514394179	0	0	0
280	1	1	-67.56923961193493	11.583245510567782	120.13516200317555	0	0	0
281	1	1	-68.42454644246575	11.492291059436676	120.64523799110947	0	0	0
282	1	1	-69.27985327299658	11.888552597282336	120.97904485034323	0	0	0
283	1	1	-70.1351601035274	11.79759814615123	121.48912083827715	0	0	0
284	1	1	-70.99046693405822	12.193859683996891	121.8229276975109	0	0	0
285	1	1	-71.84577376458904	12.102905232865785	122.33300368544482	0	0	0
286	1	1	-72.70108059511986	12.499166770711446	122.66681054467858	0	0	0
287	1	1	-73.55638742565068	12.40821231958034	123.1768865326125	0	0	0
288	1	1	-74.4116942561815	12.804473857426	123.51069339184626	0	0	0
289	1	1	-75.26700108671233	12.713519406294894	124.02076937978018	0	0	0
290	1	1	-76.12230791724315	13.109780944140555	124.35457623901394	0	0	0
291	1	1	-76.97761474777397	13.018826493009449	124.86465222694785	0	0	0
292	1	1	-77.83292157830479	13.41508803085511	125.19845908618161	0	0	0
293	1	1	-78.68822840883561	13.324133579724004	125.70853507411553	0	0	0
294	1	1	-79.54353523936643	13.720395117569664	126.04234193334929	0	0	0
295	1	1	-80.39884206989726	13.629440666438558	126.55241792128321	0	0	0
296	1	1	-81.25414890042808	14.025702204284219	126.88622478051697	0	0	0
297	1	1	-82.1094557309589	13.934747753153113	127.39630076845089	0	0	0
298	1	1	-82.96476256148972	14.331009290998773	127.73010762768465	0	0	0
299	1	1	-83.82006939202054	14.240054839867668	128.24018361561855	0	0	0
300	1	1	-84.67537622255136	14.636316377713328	128.5739904748523	0	0	0
301	1	1	-85.53068305308219	14.545361926582222	129.0840664627862	0	0	0
302	1	1	0.770825973582435	-0.19700958587727668	87.29689353188692	0	0	0
303	1	1	1.541651947164873	-0.21480146875760303	87.93369080524342	0	0	0
304	1	1	2.312477920747311	0.3277852055896168	88.26749766447718	0	0	0
305	1	1	3.0833038943297493	0.3099933227092905	88.90429493783367	0	0	0
306	1	1	3.8541298679121874	0.8525799970565103	89.23810179706743	0	0	0
307	1	1	4.624955841494625	0.8347881141761839	89.87489907042392	0	0	0
308	1	1	5.395781815077063	1.3773747885234038	90.20870592965768	0	0	0
309	1	1	6.166607788659501	1.3595829056430775	90.84550320301418	0	0	0
310	1	1	6.937433762241939	1.9021695799902973	91.17931006224794	0	0	0
311	1	1	7.708259735824377	1.884377697109971	91.81610733560443	0	0	0
312	1	1	8.479085709406815	2.426964371457191	92.14991419483819	0	0	0
313	1	1	9.249911682989254	2.4091724885768646	92.78671146819468	0	0	0
314	1	1	10.020737656571692	2.9517591629240845	93.12051832742844	0	0	0
315	1	1	10.79156363015413	2.933967280043758	93.75731560078493	0	0	0
316	1	1	11.562389603736568	3.476553954390978	94.0911224600187	0	0	0
317	1	1	12.333215577319006	3.4587620715106513	94.72791973337519	0	0	0
318	1	1	13.104041550901444	4.001348745857872	95.06172659260895	0	0	0
319	1	1	13.874867524483882	3.983556862977545	95.69852386596544	0	0	0
320	1	1	14.64569349806632	4.526143537324765	96.0323307251992	0	0	0
321	1	1	15.416519471648758	4.508351654444439	96.6691279985557	0	0	0
322	1	1	16.187345445231195	5.050938328791659	97.00293485778946	0	0	0
323	1	1	16.958171418813635	5.033146445911333	97.63973213114595	0	0	0
324	1	1	17.72899739239607	5.575733120258553	97.97353899037971	0	0	0
325	1	1	18.499823365978507	5.557941237378227	98.6103362637362	0	0	0
326	1	1	19.270649339560944	6.100527911725447	98.94414312296996	0	0	0
327	1	1	20.04147531314338	6.082736028845121	99.58094039632645	0	0	0
328	1	1	20.812301286725816	6.6253227031923405	99.91474725556021	0	0	0
329	1	1	21.583127260308252	6.607530820312014	100.55154452891671	0	0	0
330	1	1	22.35395323389069	7.150117494659234	100.88535138815047	0	0	0
331	1	1	23.124779207473125	7.132325611778908	101.52214866150696	0	0	0
332	1	1	23.89560518105556	7.674912286126128	101.85595552074072	0	0	0
333	1	1	24.666431154637998	7.657120403245802	102.49275279409721	0	0	0
334	1	1	25.437257128220434	8.199707077593022	102.82655965333097	0	0	0
335	1	1	26.20808310180287	8.181915194712696	103.46335692668747	0	0	0
336	1	1	26.978909075385307	8.724501869059916	103.79716378592123	0	0	0
337	1	1	27.749735048967743	8.70670998617959	104.43396105927772	0	0	0
338	1	1	28.52056102255018	9.24929666052681	104.76776791851148	0	0	0
339	1	1	29.291386996132616	9.231504777646483	105.40456519186797	0	0	0
340	1	1	30.062212969715052	9.774091451993703	105.73837205110173	0	0	0
341	1	1	30.83303894329749	9.756299569113377	106.37516932445823	0	0	0
342	1	1	31.603864916879925	10.298886243460597	106.70897618369199	0	0	0
343	1	1	32.37469089046236	10.281094360580271	107.34577345704848	0	0	0
344	1	1	33.1455168640448	10.82368103492749	107.67958031628224	0	0	0
345	1	1	33.91634283762724	10.805889152047165	108.31637758963873	0	0	0
346	1	1	34.68716881120968	11.348475826394385	108.6501844488725	0	0	0
347	1	1	35.45799478479212	11.330683943514058	109.28698172222899	0	0	0
348	1	1	36.22882075837456	11.873270617861278	109.62078858146275	0	0	0
349	1	1	36.999646731957	11.855478734980952	110.25758585481924	0	0	0
350	1	1	37.77047270553944	12.398065409328172	110.591392714053	0	0	0
351	1	1	38.54129867912188	12.380273526447846	111.2281899874095	0	0	0
352	1	1	39.31212465270432	12.922860200795066	111.56199684664325	0	0	0
353	1	1	40.08295062628676	12.90506831791474	112.19879411999975	0	0	0
354	1	1	40.8537765998692	13.44765499226196	112.53260097923351	0	0	0
355	1	1	41.62460257345164	13.429863109381634	113.16939825259	0	0	0
356	1	1	42.39542854703408	13.972449783728853	113.50320511182376	0	0	0
357	1	1	43.16625452061652	13.954657900848527	114.14000238518025	0	0	0
358	1	1	43.93708049419896	14.497244575195747	114.47380924441401	0	0	0
359	1	1	44.7079064677814	14.479452692315421	115.1106065177705	0	0	0
360	1	1	45.47873244136384	15.022039366662641	115.44441337700427	0	0	0
361	1	1	46.24955841494628	15.004247483782315	116.08121065036076	0	0	0
362	1	1	47.02038438852872	15.546834158129535	116.41501750959452	0	0	0
363	1	1	47.79121036211116	15.529042275249209	117.05181478295101	0	0	0
364	1	1	48.5620363356936	16.07162894959643	117.38562164218477	0	0	0
365	1	1	49.33286230927604	16.053837066716103	118.02241891554127	0	0	0
366	1	1	50.10368828285848	16.596423741063322	118.35622577477503	0	0	0
367	1	1	50.87451425644092	16.578631858182995	118.99302304813152	0	0	0
368	1	1	51.64534023002336	17.121218532530214	119.32682990736528	0	0	0
369	1	1	52.4161662036058	17.103426649649887	119.96362718072177	0	0	0
370	1	1	53.18699217718824	17.646013323997106	120.29743403995553	0	0	0
371	1	1	53.95781815077068	17.62822144111678	120.93423131331203	0	0	0
372	1	1	54.72864412435312	18.170808115464	121.26803817254579	0	0	0
373	1	1	55.49947009793556	18.15301623258367	121.90483544590228	0	0	0
374	1	1	56.270296071518	18.69560290693089	122.23864230513604	0	0	0
375	1	1	57.04112204510044	18.677811024050563	122.87543957849253	0	0	0
376	1	1	57.81194801868288	19.220397698397782	123.20924643772629	0	0	0
377	1	1	58.58277399226532	19.202605815517455	123.84604371108279	0	0	0
378	1	1	59.353599965847756	19.745192489864674	124.17985057031655	0	0	0
379	1	1	60.124425939430196	19.727400606984347	124.81664784367304	0	0	0
380	1	1	60.895251913012636	20.269987281331566	125.1504547029068	0	0	0
381	1	1	61.666077886595076	20.25219539845124	125.78725197626329	0	0	0
382	1	1	62.436903860177516	20.79478207279846	126.12105883549705	0	0	0
383	1	1	63.207729833759956	20.77699018991813	126.75785610885355	0	0	0
384	1	1	63.978555807342396	21.31957686426535	127.0916629680873	0	0	0
385	1	1	64.74938178092484	21.301784981385023	127.7284602414438	0	0	0
386	1	1	65.52020775450727	21.844371655732242	128.06226710067756	0	0	0
387	1	1	66.2910337280897	21.826579772851915	128.69906437403404	0	0	0
388	1	1	67.06185970167213	22.369166447199134	129.0328712332678	0	0	0
389	1	1	67.83268567525457	22.351374564318807	129.66966850662428	0	0	0
390	1	1	68.603511648837	22.893961238666027	130.00347536585804	0	0	0
391	1	1	69.37433762241943	22.8761693557857	130.64027263921452	0	0	0
392	1	1	70.14516359600186	23.41875603013292	130.97407949844828	0	0	0
393	1	1	70.9159895695843	23.40096414725259	131.61087677180475	0	0	0
394	1	1	71.68681554316673	23.94355082159981	131.94468363103852	0	0	0
395	1	1	72.45764151674916	23.925758938719483	132.581480904395	0	0	0
396	1	1	73.2284674903316	24.468345613066703	132.91528776362875	0	0	0
397	1	1	73.99929346391403	24.450553730186375	133.55208503698523	0	0	0
398	1	1	74.77011943749646	24.993140404533595	133.885891896219	0	0	0
399	1	1	75.5409454110789	24.975348521653267	134.52268916957547	0	0	0
400	1	1	76.31177138466133	25.517935196000487	134.85649602880923	0	0	0
401	1	1	77.08259735824376	25.50014331312016	135.4932933021657	0	0	0

Bonds

1	1	1	2
2	1	2	3
3	1	3	4
4	1	4	5
5	1	5	6
6	1	6	7
7	1	7	8
8	1	8	9
9	1	9	10
10	1	10	11
11	1	11	12
12	1	12	13
13	1	13	14
14	1	14	15
15	1	15	16
16	1	16	17
17	1	17	18
18	1	18	19
19	1	19	20
20	1	20	21
21	1	21	22
22	1	22	23
23	1	23	24
24	1	24	25
25	1	25	26
26	1	26	27
27	1	27	28
28	1	28	29
29	1	29	30
30	1	30	31
31	1	31	32
32	1	32	33
33	1	33	34
34	1	34	35
35	1	35	36
36	1	36	37
37	1	37	38
38	1	38	39
39	1	39	40
40	1	40	41
41	1	41	42
42	1	42	43
43	1	43	44
44	1	44	45
45	1	45	46
46	1	46	47
47	1	47	48
48	1	48	49
49	1	49	50
50	1	50	51
51	1	51	52
52	1	52	53
53	1	53	54
54	1	54	55
55	1	55	56
56	1	56	57
57	1	57	58
58	1	58	59
59	1	59	60
60	1	60	61
61	1	61	62
62	1	62	63
63	1	63	64
64	1	64	65
65	1	65	66
66	1	66	67
67	1	67	68
68	1	68	69
69	1	69	70
70	1	70	71
71	1	71	72
72	1	72	73
73	1	73	74
74	1	74	75
75	1	75	76
76	1	76	77
77	1	77	78
78	1	78	79
79	1	79	80
80	1	80	81
81	1	81	82
82	1	82	83
83	1	83	84
84	1	84	85
85	1	85	86
86	1	86	87
87	1	87	88
88	1	88	89
89	1	89	90
90	1	90	91
91	1	91	92
92	1	92	93
93	1	93	94
94	1	94	95
95	1	95	96
96	1	96	97
97	1	97	98
98	1	98	99
99	1	99	100
100	1	100	101
101	1	101	102
102	1	102	103
103	1	103	104
104	1	104	105
105	1	105	106
106	1	106	107
107	1	107	108
108	1	108	109
109	1	109	110
110	1	110	111
111	1	111	112
112	1	112	113
113	1	113	114
114	1	114	115
115	1	115	116
116	1	116	117
117	1	117	118
118	1	118	119
119	1	119	120
120	1	120	121
121	1	121	122
122	1	122	123
123	1	123	124
124	1	124	125
125	1	125	126
126	1	126	127
127	1	127	128
128	1	128	129
129	1	129	130
130	1	130	131
131	1	131	132
132	1	132	133
133	1	133	134
134	1	134	135
135	1	135	136
136	1	136	137
137	1	137	138
138	1	138	139
139	1	139	140
140	1	140	141
141	1	141	142
142	1	142	143
143	1	143	144
144	1	144	145
145	1	145	146
146	1	146	147
147	1	147	148
148	1	148	149
149	1	149	150
150	1	150	151
151	1	151	152
152	1	152	153
153	1	153	154
154	1	154	155
155	1	155	156
156	1	156	157
157	1	157	158
158	1	158	159
159	1	159	160
160	1	160	161
161	1	161	162
162	1	162	163
163	1	163	164
164	1	164	165
165	1	165	166
166	1	166	167
167	1	167	168
168	1	168	169
169	1	169	170
170	1	170	171
171	1	171	172
172	1	172	173
173	1	173	174
174	1	174	175
175	1	175	176
176	1	176	177
177	1	177	178
178	1	178	179
179	1	179	180
180	1	180	181
181	1	181	182
182	1	182	183
183	1	183	184
184	1	184	185
185	1	185	186
186	1	186	187
187	1	187	188
188	1	188	189
189	1	189	190
190	1	190	191
191	1	191	192
192	1	192	193
193	1	193	194
194	1	194	195
195	1	195	196
196	1	196	197
197	1	197	198
198	1	198	199
199	1	199	200
200	1	200	201
201	1	101	202
202	1	202	203
203	1	203	204
204	1	204	205
205	1	205	206
206	1	206	207
207	1	207	208
208	1	208	209
209	1	209	210
210	1	210	211
211	1	211	212
212	1	212	213
213	1	213	214
214	1	214	215
215	1	215	216
216	1	216	217
217	1	217	218
218	1	218	219
219	1	219	220
220	1	220	221
221	1	221	222
222	1	222	223
223	1	223	224
224	1	224	225
225	1	225	226
226	1	226	227
227	1	227	228
228	1	228	229
229	1	229	230
230	1	230	231
231	1	231	232
232	1	232	233
233	1	233	234
234	1	234	235
235	1	235	236
236	1	236	237
237	1	237	238
238	1	238	239
239	1	239	240
240	1	240	241
241	1	241	242
242	1	242	243
243	1	243	244
244	1	244	245
245	1	245	246
246	1	246	247
247	1	247	248
248	1	248	249
249	1	249	250
250	1	250	251
251	1	251	252
252	1	252	253
253	1	253	254
254	1	254	255
255	1	255	256
256	1	256	257
257	1	257	258
258	1	258	259
259	1	259	260
260	1	260	261
261	1	261	262
262	1	262	263
263	1	263	264
264	1	264	265
265	1	265	266
266	1	266	267
267	1	267	268
268	1	268	269
269	1	269	270
270	1	270	271
271	1	271	272
272	1	272	273
273	1	273	274
274	1	274	275
275	1	275	276
276	1	276	277
277	1	277	278
278	1	278	279
279	1	279	280
280	1	280	281
281	1	281	282
282	1	282	283
283	1	283	284
284	1	284	285
285	1	285	286
286	1	286	287
287	1	287	288
288	1	288	289
289	1	289	290
290	1	290	291
291	1	291	292
292	1	292	293
293	1	293	294
294	1	294	295
295	1	295	296
296	1	296	297
297	1	297	298
298	1	298	299
299	1	299	300
300	1	300	301
301	1	101	302
302	1	302	303
303	1	303	304
304	1	304	305
305	1	305	306
306	1	306	307
307	1	307	308
308	1	308	309
309	1	309	310
310	1	310	311
311	1	311	312
312	1	312	313
313	1	313	314
314	1	314	315
315	1	315	316
316	1	316	317
317	1	317	318
318	1	318	319
319	1	319	320