bb251nuc1bl125bn4d30tot500

501 atoms
500 bonds
502 angles

1 atom types
1 bond types
1 angle types

-1000 1000 xlo xhi
-1000 1000 ylo yhi
-1000 1000 zlo zhi

Masses

1 1

Atoms

1	1	1	0.0	0.0	0.0	0	0	0
2	1	1	0.0	0.0	1.0	0	0	0
3	1	1	0.0	-0.49999999999999994	1.8660254037844388	0	0	0
4	1	1	0.0	0.0	2.7320508075688776	0	0	0
5	1	1	0.0	-0.49999999999999994	3.5980762113533165	0	0	0
6	1	1	0.0	0.0	4.464101615137755	0	0	0
7	1	1	0.0	-0.49999999999999994	5.330127018922194	0	0	0
8	1	1	0.0	0.0	6.196152422706632	0	0	0
9	1	1	0.0	-0.49999999999999994	7.06217782649107	0	0	0
10	1	1	0.0	0.0	7.928203230275509	0	0	0
11	1	1	0.0	-0.49999999999999994	8.794228634059948	0	0	0
12	1	1	0.0	0.0	9.660254037844387	0	0	0
13	1	1	0.0	-0.49999999999999994	10.526279441628827	0	0	0
14	1	1	0.0	0.0	11.392304845413266	0	0	0
15	1	1	0.0	-0.49999999999999994	12.258330249197705	0	0	0
16	1	1	0.0	0.0	13.124355652982144	0	0	0
17	1	1	0.0	-0.49999999999999994	13.990381056766584	0	0	0
18	1	1	0.0	0.0	14.856406460551023	0	0	0
19	1	1	0.0	-0.49999999999999994	15.722431864335462	0	0	0
20	1	1	0.0	0.0	16.5884572681199	0	0	0
21	1	1	0.0	-0.49999999999999994	17.454482671904337	0	0	0
22	1	1	0.0	0.0	18.320508075688775	0	0	0
23	1	1	0.0	-0.49999999999999994	19.186533479473212	0	0	0
24	1	1	0.0	0.0	20.05255888325765	0	0	0
25	1	1	0.0	-0.49999999999999994	20.918584287042087	0	0	0
26	1	1	0.0	0.0	21.784609690826525	0	0	0
27	1	1	0.0	-0.49999999999999994	22.650635094610962	0	0	0
28	1	1	0.0	0.0	23.5166604983954	0	0	0
29	1	1	0.0	-0.49999999999999994	24.382685902179837	0	0	0
30	1	1	0.0	0.0	25.248711305964274	0	0	0
31	1	1	0.0	-0.49999999999999994	26.114736709748712	0	0	0
32	1	1	0.0	0.0	26.98076211353315	0	0	0
33	1	1	0.0	-0.49999999999999994	27.846787517317587	0	0	0
34	1	1	0.0	0.0	28.712812921102024	0	0	0
35	1	1	0.0	-0.49999999999999994	29.578838324886462	0	0	0
36	1	1	0.0	0.0	30.4448637286709	0	0	0
37	1	1	0.0	-0.49999999999999994	31.310889132455337	0	0	0
38	1	1	0.0	0.0	32.17691453623978	0	0	0
39	1	1	0.0	-0.49999999999999994	33.04293994002422	0	0	0
40	1	1	0.0	0.0	33.90896534380866	0	0	0
41	1	1	0.0	-0.49999999999999994	34.7749907475931	0	0	0
42	1	1	0.0	0.0	35.64101615137754	0	0	0
43	1	1	0.0	-0.49999999999999994	36.50704155516198	0	0	0
44	1	1	0.0	0.0	37.373066958946424	0	0	0
45	1	1	0.0	-0.49999999999999994	38.239092362730865	0	0	0
46	1	1	0.0	0.0	39.105117766515306	0	0	0
47	1	1	0.0	-0.49999999999999994	39.97114317029975	0	0	0
48	1	1	0.0	0.0	40.83716857408419	0	0	0
49	1	1	0.0	-0.49999999999999994	41.70319397786863	0	0	0
50	1	1	0.0	0.0	42.56921938165307	0	0	0
51	1	1	0.0	-0.49999999999999994	43.43524478543751	0	0	0
52	1	1	0.0	0.0	44.30127018922195	0	0	0
53	1	1	0.0	-0.49999999999999994	45.16729559300639	0	0	0
54	1	1	0.0	0.0	46.033320996790835	0	0	0
55	1	1	0.0	-0.49999999999999994	46.899346400575276	0	0	0
56	1	1	0.0	0.0	47.76537180435972	0	0	0
57	1	1	0.0	-0.49999999999999994	48.63139720814416	0	0	0
58	1	1	0.0	0.0	49.4974226119286	0	0	0
59	1	1	0.0	-0.49999999999999994	50.36344801571304	0	0	0
60	1	1	0.0	0.0	51.22947341949748	0	0	0
61	1	1	0.0	-0.49999999999999994	52.09549882328192	0	0	0
62	1	1	0.0	0.0	52.96152422706636	0	0	0
63	1	1	0.0	-0.49999999999999994	53.827549630850804	0	0	0
64	1	1	0.0	0.0	54.693575034635245	0	0	0
65	1	1	0.0	-0.49999999999999994	55.559600438419686	0	0	0
66	1	1	0.0	0.0	56.42562584220413	0	0	0
67	1	1	0.0	-0.49999999999999994	57.29165124598857	0	0	0
68	1	1	0.0	0.0	58.15767664977301	0	0	0
69	1	1	0.0	-0.49999999999999994	59.02370205355745	0	0	0
70	1	1	0.0	0.0	59.88972745734189	0	0	0
71	1	1	0.0	-0.49999999999999994	60.75575286112633	0	0	0
72	1	1	0.0	0.0	61.62177826491077	0	0	0
73	1	1	0.0	-0.49999999999999994	62.487803668695214	0	0	0
74	1	1	0.0	0.0	63.353829072479655	0	0	0
75	1	1	0.0	-0.49999999999999994	64.21985447626409	0	0	0
76	1	1	0.0	0.0	65.08587988004852	0	0	0
77	1	1	0.0	-0.49999999999999994	65.95190528383296	0	0	0
78	1	1	0.0	0.0	66.81793068761739	0	0	0
79	1	1	0.0	-0.49999999999999994	67.68395609140183	0	0	0
80	1	1	0.0	0.0	68.54998149518626	0	0	0
81	1	1	0.0	-0.49999999999999994	69.41600689897069	0	0	0
82	1	1	0.0	0.0	70.28203230275513	0	0	0
83	1	1	0.0	-0.49999999999999994	71.14805770653956	0	0	0
84	1	1	0.0	0.0	72.014083110324	0	0	0
85	1	1	0.0	-0.49999999999999994	72.88010851410843	0	0	0
86	1	1	0.0	0.0	73.74613391789286	0	0	0
87	1	1	0.0	-0.49999999999999994	74.6121593216773	0	0	0
88	1	1	0.0	0.0	75.47818472546173	0	0	0
89	1	1	0.0	-0.49999999999999994	76.34421012924616	0	0	0
90	1	1	0.0	0.0	77.2102355330306	0	0	0
91	1	1	0.0	-0.49999999999999994	78.07626093681503	0	0	0
92	1	1	0.0	0.0	78.94228634059947	0	0	0
93	1	1	0.0	-0.49999999999999994	79.8083117443839	0	0	0
94	1	1	0.0	0.0	80.67433714816833	0	0	0
95	1	1	0.0	-0.49999999999999994	81.54036255195277	0	0	0
96	1	1	0.0	0.0	82.4063879557372	0	0	0
97	1	1	0.0	-0.49999999999999994	83.27241335952164	0	0	0
98	1	1	0.0	0.0	84.13843876330607	0	0	0
99	1	1	0.0	-0.49999999999999994	85.0044641670905	0	0	0
100	1	1	0.0	0.0	85.87048957087494	0	0	0
101	1	1	0.0	-0.49999999999999994	86.73651497465937	0	0	0
102	1	1	0.0	0.0	87.6025403784438	0	0	0
103	1	1	0.0	-0.49999999999999994	88.46856578222824	0	0	0
104	1	1	0.0	0.0	89.33459118601267	0	0	0
105	1	1	0.0	-0.49999999999999994	90.20061658979711	0	0	0
106	1	1	0.0	0.0	91.06664199358154	0	0	0
107	1	1	0.0	-0.49999999999999994	91.93266739736598	0	0	0
108	1	1	0.0	0.0	92.79869280115041	0	0	0
109	1	1	0.0	-0.49999999999999994	93.66471820493484	0	0	0
110	1	1	0.0	0.0	94.53074360871928	0	0	0
111	1	1	0.0	-0.49999999999999994	95.39676901250371	0	0	0
112	1	1	0.0	0.0	96.26279441628814	0	0	0
113	1	1	0.0	-0.49999999999999994	97.12881982007258	0	0	0
114	1	1	0.0	0.0	97.99484522385701	0	0	0
115	1	1	0.0	-0.49999999999999994	98.86087062764145	0	0	0
116	1	1	0.0	0.0	99.72689603142588	0	0	0
117	1	1	0.0	-0.49999999999999994	100.59292143521031	0	0	0
118	1	1	0.0	0.0	101.45894683899475	0	0	0
119	1	1	0.0	-0.49999999999999994	102.32497224277918	0	0	0
120	1	1	0.0	0.0	103.19099764656362	0	0	0
121	1	1	0.0	-0.49999999999999994	104.05702305034805	0	0	0
122	1	1	0.0	0.0	104.92304845413248	0	0	0
123	1	1	0.0	-0.49999999999999994	105.78907385791692	0	0	0
124	1	1	0.0	0.0	106.65509926170135	0	0	0
125	1	1	0.0	-0.49999999999999994	107.52112466548579	0	0	0
126	1	1	0.0	0.0	108.38715006927022	0	0	0
127	1	1	0.8570973967965337	-0.17290206599761843	108.8724220836893	0	0	0
128	1	1	1.7141947935930713	-0.5652756547279114	109.20622894292306	0	0	0
129	1	1	2.5712921903896087	-0.4723772290391221	109.71293786815444	0	0	0
130	1	1	3.428389587186146	-0.864750817769415	110.0467447273882	0	0	0
131	1	1	4.2854869839826835	-0.7718523920806256	110.55345365261958	0	0	0
132	1	1	5.142584380779221	-1.1642259808109185	110.88726051185334	0	0	0
133	1	1	5.999681777575758	-1.0713275551221293	111.39396943708472	0	0	0
134	1	1	6.856779174372296	-1.4637011438524223	111.72777629631848	0	0	0
135	1	1	7.713876571168833	-1.370802718163633	112.23448522154986	0	0	0
136	1	1	8.57097396796537	-1.763176306893926	112.56829208078362	0	0	0
137	1	1	9.428071364761907	-1.6702778812051366	113.075001006015	0	0	0
138	1	1	10.285168761558445	-2.0626514699354295	113.40880786524876	0	0	0
139	1	1	11.142266158354982	-1.9697530442466402	113.91551679048014	0	0	0
140	1	1	11.999363555151518	-2.362126632976933	114.2493236497139	0	0	0
141	1	1	12.856460951948055	-2.2692282072881436	114.75603257494528	0	0	0
142	1	1	13.713558348744591	-2.6616017960184366	115.08983943417904	0	0	0
143	1	1	14.570655745541128	-2.568703370329647	115.59654835941042	0	0	0
144	1	1	15.427753142337664	-2.96107695905994	115.93035521864418	0	0	0
145	1	1	16.2848505391342	-2.8681785333711507	116.43706414387556	0	0	0
146	1	1	17.141947935930737	-3.2605521221014437	116.77087100310932	0	0	0
147	1	1	17.999045332727274	-3.1676536964126543	117.2775799283407	0	0	0
148	1	1	18.85614272952381	-3.5600272851429473	117.61138678757446	0	0	0
149	1	1	19.713240126320347	-3.467128859454158	118.11809571280584	0	0	0
150	1	1	20.570337523116883	-3.859502448184451	118.4519025720396	0	0	0
151	1	1	21.42743491991342	-3.7666040224956614	118.95861149727098	0	0	0
152	1	1	22.284532316709956	-4.158977611225954	119.29241835650474	0	0	0
153	1	1	23.141629713506493	-4.066079185537165	119.79912728173612	0	0	0
154	1	1	23.99872711030303	-4.4584527742674585	120.13293414096988	0	0	0
155	1	1	24.855824507099566	-4.365554348578669	120.63964306620126	0	0	0
156	1	1	25.712921903896103	-4.7579279373089625	120.97344992543502	0	0	0
157	1	1	26.57001930069264	-4.665029511620173	121.4801588506664	0	0	0
158	1	1	27.427116697489176	-5.0574031003504665	121.81396570990016	0	0	0
159	1	1	28.284214094285712	-4.964504674661677	122.32067463513154	0	0	0
160	1	1	29.14131149108225	-5.3568782633919705	122.6544814943653	0	0	0
161	1	1	29.998408887878785	-5.2639798377031815	123.16119041959668	0	0	0
162	1	1	30.85550628467532	-5.6563534264334745	123.49499727883044	0	0	0
163	1	1	31.712603681471858	-5.5634550007446855	124.00170620406182	0	0	0
164	1	1	32.569701078268395	-5.9558285894749785	124.33551306329558	0	0	0
165	1	1	33.426798475064935	-5.8629301637861895	124.84222198852696	0	0	0
166	1	1	34.283895871861475	-6.2553037525164825	125.17602884776072	0	0	0
167	1	1	35.140993268658015	-6.1624053268276935	125.6827377729921	0	0	0
168	1	1	35.998090665454555	-6.5547789155579865	126.01654463222586	0	0	0
169	1	1	36.855188062251095	-6.4618804898691975	126.52325355745724	0	0	0
170	1	1	37.712285459047635	-6.8542540785994905	126.857060416691	0	0	0
171	1	1	38.569382855844175	-6.7613556529107015	127.36376934192238	0	0	0
172	1	1	39.426480252640715	-7.1537292416409946	127.69757620115614	0	0	0
173	1	1	40.283577649437255	-7.0608308159522055	128.20428512638753	0	0	0
174	1	1	41.140675046233795	-7.453204404682499	128.5380919856213	0	0	0
175	1	1	41.997772443030335	-7.3603059789937095	129.04480091085267	0	0	0
176	1	1	42.854869839826875	-7.752679567724003	129.37860777008643	0	0	0
177	1	1	43.711967236623416	-7.6597811420352135	129.8853166953178	0	0	0
178	1	1	44.569064633419956	-8.052154730765507	130.21912355455157	0	0	0
179	1	1	45.426162030216496	-7.9592563050767176	130.72583247978295	0	0	0
180	1	1	46.283259427013036	-8.35162989380701	131.0596393390167	0	0	0
181	1	1	47.140356823809576	-8.25873146811822	131.5663482642481	0	0	0
182	1	1	47.997454220606116	-8.651105056848513	131.90015512348185	0	0	0
183	1	1	48.854551617402656	-8.558206631159724	132.40686404871323	0	0	0
184	1	1	49.711649014199196	-8.950580219890016	132.740670907947	0	0	0
185	1	1	50.568746410995736	-8.857681794201227	133.24737983317837	0	0	0
186	1	1	51.425843807792276	-9.250055382931519	133.58118669241213	0	0	0
187	1	1	52.282941204588816	-9.15715695724273	134.0878956176435	0	0	0
188	1	1	53.140038601385356	-9.549530545973022	134.42170247687727	0	0	0
189	1	1	53.997135998181896	-9.456632120284233	134.92841140210865	0	0	0
190	1	1	54.854233394978436	-9.849005709014525	135.2622182613424	0	0	0
191	1	1	55.71133079177498	-9.756107283325736	135.7689271865738	0	0	0
192	1	1	56.56842818857152	-10.148480872056028	136.10273404580755	0	0	0
193	1	1	57.42552558536806	-10.05558244636724	136.60944297103893	0	0	0
194	1	1	58.2826229821646	-10.447956035097532	136.9432498302727	0	0	0
195	1	1	59.13972037896114	-10.355057609408743	137.44995875550407	0	0	0
196	1	1	59.99681777575768	-10.747431198139035	137.78376561473783	0	0	0
197	1	1	60.85391517255422	-10.654532772450246	138.2904745399692	0	0	0
198	1	1	61.71101256935076	-11.046906361180538	138.62428139920297	0	0	0
199	1	1	62.5681099661473	-10.954007935491749	139.13099032443435	0	0	0
200	1	1	63.42520736294384	-11.346381524222041	139.4647971836681	0	0	0
201	1	1	64.28230475974037	-11.253483098533252	139.9715061088995	0	0	0
202	1	1	65.1394021565369	-11.645856687263544	140.30531296813325	0	0	0
203	1	1	65.99649955333344	-11.552958261574755	140.81202189336463	0	0	0
204	1	1	66.85359695012997	-11.945331850305047	141.1458287525984	0	0	0
205	1	1	67.7106943469265	-11.852433424616258	141.65253767782977	0	0	0
206	1	1	68.56779174372303	-12.24480701334655	141.98634453706353	0	0	0
207	1	1	69.42488914051957	-12.151908587657761	142.4930534622949	0	0	0
208	1	1	70.2819865373161	-12.544282176388053	142.82686032152867	0	0	0
209	1	1	71.13908393411263	-12.451383750699264	143.33356924676005	0	0	0
210	1	1	71.99618133090917	-12.843757339429557	143.6673761059938	0	0	0
211	1	1	72.8532787277057	-12.750858913740768	144.1740850312252	0	0	0
212	1	1	73.71037612450223	-13.14323250247106	144.50789189045895	0	0	0
213	1	1	74.56747352129877	-13.05033407678227	145.01460081569033	0	0	0
214	1	1	75.4245709180953	-13.442707665512563	145.3484076749241	0	0	0
215	1	1	76.28166831489183	-13.349809239823774	145.85511660015547	0	0	0
216	1	1	77.13876571168836	-13.742182828554066	146.18892345938923	0	0	0
217	1	1	77.9958631084849	-13.649284402865277	146.6956323846206	0	0	0
218	1	1	78.85296050528143	-14.041657991595569	147.02943924385437	0	0	0
219	1	1	79.71005790207796	-13.94875956590678	147.53614816908575	0	0	0
220	1	1	80.5671552988745	-14.341133154637072	147.8699550283195	0	0	0
221	1	1	81.42425269567103	-14.248234728948283	148.3766639535509	0	0	0
222	1	1	82.28135009246756	-14.640608317678575	148.71047081278465	0	0	0
223	1	1	83.1384474892641	-14.547709891989786	149.21717973801603	0	0	0
224	1	1	83.99554488606063	-14.940083480720078	149.5509865972498	0	0	0
225	1	1	84.85264228285716	-14.84718505503129	150.05769552248117	0	0	0
226	1	1	85.7097396796537	-15.239558643761582	150.39150238171493	0	0	0
227	1	1	86.56683707645023	-15.146660218072793	150.8982113069463	0	0	0
228	1	1	87.42393447324676	-15.539033806803085	151.23201816618007	0	0	0
229	1	1	88.2810318700433	-15.446135381114296	151.73872709141145	0	0	0
230	1	1	89.13812926683983	-15.838508969844588	152.0725339506452	0	0	0
231	1	1	89.99522666363636	-15.745610544155799	152.5792428758766	0	0	0
232	1	1	90.85232406043289	-16.137984132886093	152.91304973511035	0	0	0
233	1	1	91.70942145722942	-16.045085707197302	153.41975866034173	0	0	0
234	1	1	92.56651885402596	-16.437459295927596	153.7535655195755	0	0	0
235	1	1	93.42361625082249	-16.344560870238805	154.26027444480687	0	0	0
236	1	1	94.28071364761902	-16.7369344589691	154.59408130404063	0	0	0
237	1	1	95.13781104441556	-16.644036033280308	155.100790229272	0	0	0
238	1	1	95.99490844121209	-17.036409622010602	155.43459708850577	0	0	0
239	1	1	96.85200583800862	-16.94351119632181	155.94130601373715	0	0	0
240	1	1	97.70910323480516	-17.335884785052105	156.2751128729709	0	0	0
241	1	1	98.56620063160169	-17.242986359363314	156.7818217982023	0	0	0
242	1	1	99.42329802839822	-17.63535994809361	157.11562865743605	0	0	0
243	1	1	100.28039542519475	-17.542461522404817	157.62233758266743	0	0	0
244	1	1	101.13749282199129	-17.93483511113511	157.9561444419012	0	0	0
245	1	1	101.99459021878782	-17.84193668544632	158.46285336713257	0	0	0
246	1	1	102.85168761558435	-18.234310274176615	158.79666022636633	0	0	0
247	1	1	103.70878501238089	-18.141411848487824	159.3033691515977	0	0	0
248	1	1	104.56588240917742	-18.533785437218118	159.63717601083147	0	0	0
249	1	1	105.42297980597395	-18.440887011529327	160.14388493606285	0	0	0
250	1	1	106.28007720277049	-18.83326060025962	160.4776917952966	0	0	0
251	1	1	107.13717459956702	-18.74036217457083	160.984400720528	0	0	0
252	1	1	-0.7683541940127625	-0.306016870173274	108.94927595171323	0	0	0
253	1	1	-1.5367083880255281	-0.8520981949514459	109.283082810947	0	0	0
254	1	1	-2.3050625820382935	-0.8360536372865958	109.92290654035403	0	0	0
255	1	1	-3.073416776051059	-1.3821349620647676	110.2567133995878	0	0	0
256	1	1	-3.8417709700638243	-1.3660904043999176	110.89653712899484	0	0	0
257	1	1	-4.61012516407659	-1.9121717291780893	111.2303439882286	0	0	0
258	1	1	-5.378479358089355	-1.8961271715132393	111.87016771763564	0	0	0
259	1	1	-6.1468335521021205	-2.442208496291411	112.2039745768694	0	0	0
260	1	1	-6.915187746114886	-2.4261639386265608	112.84379830627644	0	0	0
261	1	1	-7.683541940127651	-2.9722452634047327	113.1776051655102	0	0	0
262	1	1	-8.451896134140418	-2.9562007057398825	113.81742889491724	0	0	0
263	1	1	-9.220250328153183	-3.5022820305180544	114.151235754151	0	0	0
264	1	1	-9.988604522165948	-3.486237472853204	114.79105948355804	0	0	0
265	1	1	-10.756958716178714	-4.032318797631376	115.1248663427918	0	0	0
266	1	1	-11.525312910191479	-4.016274239966526	115.76469007219885	0	0	0
267	1	1	-12.293667104204244	-4.562355564744697	116.0984969314326	0	0	0
268	1	1	-13.06202129821701	-4.546311007079847	116.73832066083965	0	0	0
269	1	1	-13.830375492229775	-5.092392331858019	117.07212752007341	0	0	0
270	1	1	-14.59872968624254	-5.076347774193168	117.71195124948045	0	0	0
271	1	1	-15.367083880255306	-5.62242909897134	118.04575810871421	0	0	0
272	1	1	-16.135438074268073	-5.60638454130649	118.68558183812125	0	0	0
273	1	1	-16.90379226828084	-6.152465866084661	119.01938869735501	0	0	0
274	1	1	-17.672146462293604	-6.136421308419811	119.65921242676205	0	0	0
275	1	1	-18.44050065630637	-6.682502633197982	119.99301928599581	0	0	0
276	1	1	-19.208854850319135	-6.666458075533132	120.63284301540286	0	0	0
277	1	1	-19.9772090443319	-7.212539400311304	120.96664987463662	0	0	0
278	1	1	-20.745563238344666	-7.1964948426464534	121.60647360404366	0	0	0
279	1	1	-21.51391743235743	-7.742576167424625	121.94028046327742	0	0	0
280	1	1	-22.282271626370196	-7.726531609759775	122.58010419268446	0	0	0
281	1	1	-23.05062582038296	-8.272612934537946	122.91391105191822	0	0	0
282	1	1	-23.818980014395727	-8.256568376873096	123.55373478132526	0	0	0
283	1	1	-24.587334208408492	-8.802649701651267	123.88754164055902	0	0	0
284	1	1	-25.355688402421258	-8.786605143986417	124.52736536996606	0	0	0
285	1	1	-26.124042596434023	-9.332686468764589	124.86117222919982	0	0	0
286	1	1	-26.89239679044679	-9.316641911099738	125.50099595860686	0	0	0
287	1	1	-27.660750984459554	-9.86272323587791	125.83480281784063	0	0	0
288	1	1	-28.42910517847232	-9.84667867821306	126.47462654724767	0	0	0
289	1	1	-29.197459372485085	-10.392760002991231	126.80843340648143	0	0	0
290	1	1	-29.96581356649785	-10.376715445326381	127.44825713588847	0	0	0
291	1	1	-30.734167760510616	-10.922796770104553	127.78206399512223	0	0	0
292	1	1	-31.50252195452338	-10.906752212439702	128.42188772452926	0	0	0
293	1	1	-32.270876148536146	-11.452833537217874	128.75569458376302	0	0	0
294	1	1	-33.03923034254891	-11.436788979553024	129.39551831317004	0	0	0
295	1	1	-33.80758453656168	-11.982870304331195	129.7293251724038	0	0	0
296	1	1	-34.57593873057444	-11.966825746666345	130.36914890181083	0	0	0
297	1	1	-35.34429292458721	-12.512907071444516	130.7029557610446	0	0	0
298	1	1	-36.11264711859997	-12.496862513779666	131.34277949045162	0	0	0
299	1	1	-36.88100131261274	-13.042943838557838	131.67658634968538	0	0	0
300	1	1	-37.649355506625504	-13.026899280892987	132.3164100790924	0	0	0
301	1	1	-38.41770970063827	-13.572980605671159	132.65021693832617	0	0	0
302	1	1	-39.186063894651035	-13.556936048006309	133.2900406677332	0	0	0
303	1	1	-39.9544180886638	-14.10301737278448	133.62384752696696	0	0	0
304	1	1	-40.722772282676566	-14.08697281511963	134.26367125637398	0	0	0
305	1	1	-41.49112647668933	-14.633054139897801	134.59747811560774	0	0	0
306	1	1	-42.2594806707021	-14.617009582232951	135.23730184501477	0	0	0
307	1	1	-43.02783486471486	-15.163090907011123	135.57110870424853	0	0	0
308	1	1	-43.79618905872763	-15.147046349346272	136.21093243365556	0	0	0
309	1	1	-44.56454325274039	-15.693127674124444	136.54473929288932	0	0	0
310	1	1	-45.33289744675316	-15.677083116459594	137.18456302229635	0	0	0
311	1	1	-46.10125164076592	-16.223164441237767	137.5183698815301	0	0	0
312	1	1	-46.86960583477869	-16.20711988357292	138.15819361093713	0	0	0
313	1	1	-47.637960028791454	-16.75320120835109	138.4920004701709	0	0	0
314	1	1	-48.40631422280422	-16.73715665068624	139.13182419957792	0	0	0
315	1	1	-49.174668416816985	-17.283237975464413	139.46563105881168	0	0	0
316	1	1	-49.94302261082975	-17.267193417799565	140.1054547882187	0	0	0
317	1	1	-50.711376804842516	-17.813274742577736	140.43926164745247	0	0	0
318	1	1	-51.47973099885528	-17.797230184912888	141.0790853768595	0	0	0
319	1	1	-52.24808519286805	-18.34331150969106	141.41289223609326	0	0	0
320	1	1	-53.01643938688081	-18.32726695202621	142.05271596550028	0	0	0
321	1	1	-53.78479358089358	-18.873348276804382	142.38652282473404	0	0	0
322	1	1	-54.55314777490634	-18.857303719139534	143.02634655414107	0	0	0
323	1	1	-55.32150196891911	-19.403385043917705	143.36015341337483	0	0	0
324	1	1	-56.08985616293187	-19.387340486252857	143.99997714278186	0	0	0
325	1	1	-56.85821035694464	-19.933421811031028	144.33378400201562	0	0	0
326	1	1	-57.626564550957404	-19.91737725336618	144.97360773142265	0	0	0
327	1	1	-58.39491874497017	-20.46345857814435	145.3074145906564	0	0	0
328	1	1	-59.163272938982935	-20.447414020479503	145.94723832006343	0	0	0
329	1	1	-59.9316271329957	-20.993495345257674	146.2810451792972	0	0	0
330	1	1	-60.699981327008466	-20.977450787592826	146.92086890870422	0	0	0
331	1	1	-61.46833552102123	-21.523532112370997	147.25467576793798	0	0	0
332	1	1	-62.236689715034	-21.50748755470615	147.894499497345	0	0	0
333	1	1	-63.00504390904676	-22.05356887948432	148.22830635657877	0	0	0
334	1	1	-63.77339810305953	-22.037524321819472	148.8681300859858	0	0	0
335	1	1	-64.54175229707229	-22.583605646597643	149.20193694521956	0	0	0
336	1	1	-65.31010649108507	-22.567561088932795	149.84176067462658	0	0	0
337	1	1	-66.07846068509784	-23.113642413710966	150.17556753386035	0	0	0
338	1	1	-66.84681487911061	-23.097597856046118	150.81539126326737	0	0	0
339	1	1	-67.61516907312338	-23.64367918082429	151.14919812250113	0	0	0
340	1	1	-68.38352326713616	-23.62763462315944	151.78902185190816	0	0	0
341	1	1	-69.15187746114893	-24.173715947937612	152.12282871114192	0	0	0
342	1	1	-69.9202316551617	-24.157671390272764	152.76265244054895	0	0	0
343	1	1	-70.68858584917447	-24.703752715050936	153.0964592997827	0	0	0
344	1	1	-71.45694004318725	-24.687708157386087	153.73628302918974	0	0	0
345	1	1	-72.22529423720002	-25.23378948216426	154.0700898884235	0	0	0
346	1	1	-72.99364843121279	-25.21774492449941	154.70991361783052	0	0	0
347	1	1	-73.76200262522556	-25.76382624927758	155.04372047706428	0	0	0
348	1	1	-74.53035681923834	-25.747781691612733	155.6835442064713	0	0	0
349	1	1	-75.29871101325111	-26.293863016390905	156.01735106570507	0	0	0
350	1	1	-76.06706520726388	-26.277818458726056	156.6571747951121	0	0	0
351	1	1	-76.83541940127665	-26.823899783504228	156.99098165434586	0	0	0
352	1	1	-77.60377359528943	-26.80785522583938	157.6308053837529	0	0	0
353	1	1	-78.3721277893022	-27.35393655061755	157.96461224298665	0	0	0
354	1	1	-79.14048198331497	-27.337891992952702	158.60443597239367	0	0	0
355	1	1	-79.90883617732774	-27.883973317730874	158.93824283162743	0	0	0
356	1	1	-80.67719037134052	-27.867928760066025	159.57806656103446	0	0	0
357	1	1	-81.44554456535329	-28.414010084844197	159.91187342026822	0	0	0
358	1	1	-82.21389875936606	-28.39796552717935	160.55169714967525	0	0	0
359	1	1	-82.98225295337883	-28.94404685195752	160.885504008909	0	0	0
360	1	1	-83.7506071473916	-28.92800229429267	161.52532773831604	0	0	0
361	1	1	-84.51896134140438	-29.474083619070843	161.8591345975498	0	0	0
362	1	1	-85.28731553541715	-29.458039061405994	162.49895832695682	0	0	0
363	1	1	-86.05566972942992	-30.004120386184166	162.83276518619058	0	0	0
364	1	1	-86.8240239234427	-29.988075828519317	163.4725889155976	0	0	0
365	1	1	-87.59237811745547	-30.53415715329749	163.80639577483137	0	0	0
366	1	1	-88.36073231146824	-30.51811259563264	164.4462195042384	0	0	0
367	1	1	-89.12908650548101	-31.064193920410812	164.78002636347216	0	0	0
368	1	1	-89.89744069949379	-31.048149362745963	165.4198500928792	0	0	0
369	1	1	-90.66579489350656	-31.594230687524135	165.75365695211295	0	0	0
370	1	1	-91.43414908751933	-31.578186129859287	166.39348068151997	0	0	0
371	1	1	-92.2025032815321	-32.12426745463746	166.72728754075374	0	0	0
372	1	1	-92.97085747554488	-32.10822289697261	167.36711127016076	0	0	0
373	1	1	-93.73921166955765	-32.654304221750785	167.70091812939452	0	0	0
374	1	1	-94.50756586357042	-32.638259664085936	168.34074185880155	0	0	0
375	1	1	-95.27592005758319	-33.18434098886411	168.6745487180353	0	0	0
376	1	1	-96.04427425159597	-33.16829643119926	169.31437244744234	0	0	0
377	1	1	-0.0887432027837835	0.9796292250215299	108.20700783256993	0	0	0
378	1	1	-0.17748640556756734	1.9180841385299883	108.54081469180369	0	0	0
379	1	1	-0.2662296083513512	2.6763968153381508	107.89499232601591	0	0	0
380	1	1	-0.354972811135135	3.614851728846609	108.22879918524967	0	0	0
381	1	1	-0.44371601391891885	4.373164405654771	107.58297681946189	0	0	0
382	1	1	-0.5324592167027027	5.3116193191632295	107.91678367869565	0	0	0
383	1	1	-0.6212024194864866	6.069931995971392	107.27096131290787	0	0	0
384	1	1	-0.7099456222702705	7.00838690947985	107.60476817214163	0	0	0
385	1	1	-0.7986888250540544	7.766699586288013	106.95894580635385	0	0	0
386	1	1	-0.8874320278378383	8.705154499796471	107.29275266558761	0	0	0
387	1	1	-0.9761752306216221	9.463467176604635	106.64693029979983	0	0	0
388	1	1	-1.064918433405406	10.401922090113093	106.9807371590336	0	0	0
389	1	1	-1.1536616361891898	11.160234766921256	106.33491479324582	0	0	0
390	1	1	-1.2424048389729736	12.098689680429715	106.66872165247958	0	0	0
391	1	1	-1.3311480417567574	12.857002357237878	106.0228992866918	0	0	0
392	1	1	-1.4198912445405412	13.795457270746336	106.35670614592556	0	0	0
393	1	1	-1.508634447324325	14.5537699475545	105.71088378013778	0	0	0
394	1	1	-1.5973776501081087	15.492224861062958	106.04469063937154	0	0	0
395	1	1	-1.6861208528918925	16.25053753787112	105.39886827358376	0	0	0
396	1	1	-1.7748640556756763	17.18899245137958	105.73267513281752	0	0	0
397	1	1	-1.86360725845946	17.947305128187743	105.08685276702974	0	0	0
398	1	1	-1.9523504612432439	18.8857600416962	105.4206596262635	0	0	0
399	1	1	-2.0410936640270276	19.644072718504365	104.77483726047572	0	0	0
400	1	1	-2.1298368668108116	20.582527632012823	105.10864411970948	0	0	0
401	1	1	-2.2185800695945956	21.340840308820987	104.4628217539217	0	0	0
402	1	1	-2.3073232723783796	22.279295222329445	104.79662861315546	0	0	0
403	1	1	-2.3960664751621636	23.03760789913761	104.15080624736768	0	0	0
404	1	1	-2.4848096779459476	23.976062812646067	104.48461310660144	0	0	0
405	1	1	-2.5735528807297317	24.73437548945423	103.83879074081366	0	0	0
406	1	1	-2.6622960835135157	25.67283040296269	104.17259760004742	0	0	0
407	1	1	-2.7510392862972997	26.43114307977085	103.52677523425965	0	0	0
408	1	1	-2.8397824890810837	27.36959799327931	103.8605820934934	0	0	0
409	1	1	-2.9285256918648677	28.127910670087473	103.21475972770563	0	0	0
410	1	1	-3.0172688946486517	29.066365583595932	103.54856658693939	0	0	0
411	1	1	-3.1060120974324357	29.824678260404095	102.90274422115161	0	0	0
412	1	1	-3.1947553002162197	30.763133173912554	103.23655108038537	0	0	0
413	1	1	-3.2834985030000037	31.521445850720717	102.59072871459759	0	0	0
414	1	1	-3.3722417057837877	32.459900764229175	102.92453557383135	0	0	0
415	1	1	-3.4609849085675717	33.218213441037335	102.27871320804357	0	0	0
416	1	1	-3.5497281113513557	34.15666835454579	102.61252006727733	0	0	0
417	1	1	-3.6384713141351397	34.91498103135395	101.96669770148955	0	0	0
418	1	1	-3.7272145169189237	35.85343594486241	102.30050456072331	0	0	0
419	1	1	-3.8159577197027077	36.61174862167057	101.65468219493553	0	0	0
420	1	1	-3.9047009224864917	37.55020353517903	101.98848905416929	0	0	0
421	1	1	-3.9934441252702757	38.30851621198719	101.34266668838151	0	0	0
422	1	1	-4.08218732805406	39.24697112549565	101.67647354761527	0	0	0
423	1	1	-4.170930530837843	40.00528380230381	101.0306511818275	0	0	0
424	1	1	-4.259673733621627	40.943738715812266	101.36445804106125	0	0	0
425	1	1	-4.34841693640541	41.702051392620426	100.71863567527348	0	0	0
426	1	1	-4.437160139189194	42.640506306128884	101.05244253450724	0	0	0
427	1	1	-4.5259033419729775	43.398818982937044	100.40662016871946	0	0	0
428	1	1	-4.614646544756761	44.3372738964455	100.74042702795322	0	0	0
429	1	1	-4.703389747540545	45.09558657325366	100.09460466216544	0	0	0
430	1	1	-4.792132950324328	46.03404148676212	100.4284115213992	0	0	0
431	1	1	-4.880876153108112	46.79235416357028	99.78258915561142	0	0	0
432	1	1	-4.969619355891895	47.73080907707874	100.11639601484518	0	0	0
433	1	1	-5.058362558675679	48.4891217538869	99.4705736490574	0	0	0
434	1	1	-5.147105761459462	49.42757666739536	99.80438050829116	0	0	0
435	1	1	-5.235848964243246	50.18588934420352	99.15855814250338	0	0	0
436	1	1	-5.3245921670270295	51.124344257711975	99.49236500173714	0	0	0
437	1	1	-5.413335369810813	51.882656934520135	98.84654263594936	0	0	0
438	1	1	-5.502078572594597	52.82111184802859	99.18034949518312	0	0	0
439	1	1	-5.59082177537838	53.57942452483675	98.53452712939534	0	0	0
440	1	1	-5.679564978162164	54.51787943834521	98.8683339886291	0	0	0
441	1	1	-5.768308180945947	55.27619211515337	98.22251162284132	0	0	0
442	1	1	-5.857051383729731	56.21464702866183	98.55631848207508	0	0	0
443	1	1	-5.9457945865135144	56.97295970546999	97.9104961162873	0	0	0
444	1	1	-6.034537789297298	57.91141461897845	98.24430297552107	0	0	0
445	1	1	-6.123280992081082	58.66972729578661	97.59848060973329	0	0	0
446	1	1	-6.212024194864865	59.608182209295066	97.93228746896705	0	0	0
447	1	1	-6.300767397648649	60.366494886103226	97.28646510317927	0	0	0
448	1	1	-6.389510600432432	61.304949799611684	97.62027196241303	0	0	0
449	1	1	-6.478253803216216	62.063262476419844	96.97444959662525	0	0	0
450	1	1	-6.566997005999999	63.0017173899283	97.30825645585901	0	0	0
451	1	1	-6.655740208783783	63.76003006673646	96.66243409007123	0	0	0
452	1	1	-6.7444834115675665	64.69848498024493	96.99624094930499	0	0	0
453	1	1	-6.83322661435135	65.45679765705309	96.35041858351721	0	0	0
454	1	1	-6.921969817135134	66.39525257056155	96.68422544275097	0	0	0
455	1	1	-7.010713019918917	67.15356524736971	96.03840307696319	0	0	0
456	1	1	-7.099456222702701	68.09202016087818	96.37220993619695	0	0	0
457	1	1	-7.188199425486484	68.85033283768634	95.72638757040917	0	0	0
458	1	1	-7.276942628270268	69.7887877511948	96.06019442964293	0	0	0
459	1	1	-7.365685831054051	70.54710042800296	95.41437206385515	0	0	0
460	1	1	-7.454429033837835	71.48555534151143	95.74817892308891	0	0	0
461	1	1	-7.5431722366216185	72.24386801831959	95.10235655730114	0	0	0
462	1	1	-7.631915439405402	73.18232293182805	95.4361634165349	0	0	0