bb301nuc1bl150bn4d30tot600

601 atoms
600 bonds
602 angles

1 atom types
1 bond types
1 angle types

-1000 1000 xlo xhi
-1000 1000 ylo yhi
-1000 1000 zlo zhi

Masses

1 1

Atoms

1	1	1	0.0	0.0	0.0	0	0	0
2	1	1	0.0	0.0	1.0	0	0	0
3	1	1	0.0	-0.49999999999999994	1.8660254037844388	0	0	0
4	1	1	0.0	0.0	2.7320508075688776	0	0	0
5	1	1	0.0	-0.49999999999999994	3.5980762113533165	0	0	0
6	1	1	0.0	0.0	4.464101615137755	0	0	0
7	1	1	0.0	-0.49999999999999994	5.330127018922194	0	0	0
8	1	1	0.0	0.0	6.196152422706632	0	0	0
9	1	1	0.0	-0.49999999999999994	7.06217782649107	0	0	0
10	1	1	0.0	0.0	7.928203230275509	0	0	0
11	1	1	0.0	-0.49999999999999994	8.794228634059948	0	0	0
12	1	1	0.0	0.0	9.660254037844387	0	0	0
13	1	1	0.0	-0.49999999999999994	10.526279441628827	0	0	0
14	1	1	0.0	0.0	11.392304845413266	0	0	0
15	1	1	0.0	-0.49999999999999994	12.258330249197705	0	0	0
16	1	1	0.0	0.0	13.124355652982144	0	0	0
17	1	1	0.0	-0.49999999999999994	13.990381056766584	0	0	0
18	1	1	0.0	0.0	14.856406460551023	0	0	0
19	1	1	0.0	-0.49999999999999994	15.722431864335462	0	0	0
20	1	1	0.0	0.0	16.5884572681199	0	0	0
21	1	1	0.0	-0.49999999999999994	17.454482671904337	0	0	0
22	1	1	0.0	0.0	18.320508075688775	0	0	0
23	1	1	0.0	-0.49999999999999994	19.186533479473212	0	0	0
24	1	1	0.0	0.0	20.05255888325765	0	0	0
25	1	1	0.0	-0.49999999999999994	20.918584287042087	0	0	0
26	1	1	0.0	0.0	21.784609690826525	0	0	0
27	1	1	0.0	-0.49999999999999994	22.650635094610962	0	0	0
28	1	1	0.0	0.0	23.5166604983954	0	0	0
29	1	1	0.0	-0.49999999999999994	24.382685902179837	0	0	0
30	1	1	0.0	0.0	25.248711305964274	0	0	0
31	1	1	0.0	-0.49999999999999994	26.114736709748712	0	0	0
32	1	1	0.0	0.0	26.98076211353315	0	0	0
33	1	1	0.0	-0.49999999999999994	27.846787517317587	0	0	0
34	1	1	0.0	0.0	28.712812921102024	0	0	0
35	1	1	0.0	-0.49999999999999994	29.578838324886462	0	0	0
36	1	1	0.0	0.0	30.4448637286709	0	0	0
37	1	1	0.0	-0.49999999999999994	31.310889132455337	0	0	0
38	1	1	0.0	0.0	32.17691453623978	0	0	0
39	1	1	0.0	-0.49999999999999994	33.04293994002422	0	0	0
40	1	1	0.0	0.0	33.90896534380866	0	0	0
41	1	1	0.0	-0.49999999999999994	34.7749907475931	0	0	0
42	1	1	0.0	0.0	35.64101615137754	0	0	0
43	1	1	0.0	-0.49999999999999994	36.50704155516198	0	0	0
44	1	1	0.0	0.0	37.373066958946424	0	0	0
45	1	1	0.0	-0.49999999999999994	38.239092362730865	0	0	0
46	1	1	0.0	0.0	39.105117766515306	0	0	0
47	1	1	0.0	-0.49999999999999994	39.97114317029975	0	0	0
48	1	1	0.0	0.0	40.83716857408419	0	0	0
49	1	1	0.0	-0.49999999999999994	41.70319397786863	0	0	0
50	1	1	0.0	0.0	42.56921938165307	0	0	0
51	1	1	0.0	-0.49999999999999994	43.43524478543751	0	0	0
52	1	1	0.0	0.0	44.30127018922195	0	0	0
53	1	1	0.0	-0.49999999999999994	45.16729559300639	0	0	0
54	1	1	0.0	0.0	46.033320996790835	0	0	0
55	1	1	0.0	-0.49999999999999994	46.899346400575276	0	0	0
56	1	1	0.0	0.0	47.76537180435972	0	0	0
57	1	1	0.0	-0.49999999999999994	48.63139720814416	0	0	0
58	1	1	0.0	0.0	49.4974226119286	0	0	0
59	1	1	0.0	-0.49999999999999994	50.36344801571304	0	0	0
60	1	1	0.0	0.0	51.22947341949748	0	0	0
61	1	1	0.0	-0.49999999999999994	52.09549882328192	0	0	0
62	1	1	0.0	0.0	52.96152422706636	0	0	0
63	1	1	0.0	-0.49999999999999994	53.827549630850804	0	0	0
64	1	1	0.0	0.0	54.693575034635245	0	0	0
65	1	1	0.0	-0.49999999999999994	55.559600438419686	0	0	0
66	1	1	0.0	0.0	56.42562584220413	0	0	0
67	1	1	0.0	-0.49999999999999994	57.29165124598857	0	0	0
68	1	1	0.0	0.0	58.15767664977301	0	0	0
69	1	1	0.0	-0.49999999999999994	59.02370205355745	0	0	0
70	1	1	0.0	0.0	59.88972745734189	0	0	0
71	1	1	0.0	-0.49999999999999994	60.75575286112633	0	0	0
72	1	1	0.0	0.0	61.62177826491077	0	0	0
73	1	1	0.0	-0.49999999999999994	62.487803668695214	0	0	0
74	1	1	0.0	0.0	63.353829072479655	0	0	0
75	1	1	0.0	-0.49999999999999994	64.21985447626409	0	0	0
76	1	1	0.0	0.0	65.08587988004852	0	0	0
77	1	1	0.0	-0.49999999999999994	65.95190528383296	0	0	0
78	1	1	0.0	0.0	66.81793068761739	0	0	0
79	1	1	0.0	-0.49999999999999994	67.68395609140183	0	0	0
80	1	1	0.0	0.0	68.54998149518626	0	0	0
81	1	1	0.0	-0.49999999999999994	69.41600689897069	0	0	0
82	1	1	0.0	0.0	70.28203230275513	0	0	0
83	1	1	0.0	-0.49999999999999994	71.14805770653956	0	0	0
84	1	1	0.0	0.0	72.014083110324	0	0	0
85	1	1	0.0	-0.49999999999999994	72.88010851410843	0	0	0
86	1	1	0.0	0.0	73.74613391789286	0	0	0
87	1	1	0.0	-0.49999999999999994	74.6121593216773	0	0	0
88	1	1	0.0	0.0	75.47818472546173	0	0	0
89	1	1	0.0	-0.49999999999999994	76.34421012924616	0	0	0
90	1	1	0.0	0.0	77.2102355330306	0	0	0
91	1	1	0.0	-0.49999999999999994	78.07626093681503	0	0	0
92	1	1	0.0	0.0	78.94228634059947	0	0	0
93	1	1	0.0	-0.49999999999999994	79.8083117443839	0	0	0
94	1	1	0.0	0.0	80.67433714816833	0	0	0
95	1	1	0.0	-0.49999999999999994	81.54036255195277	0	0	0
96	1	1	0.0	0.0	82.4063879557372	0	0	0
97	1	1	0.0	-0.49999999999999994	83.27241335952164	0	0	0
98	1	1	0.0	0.0	84.13843876330607	0	0	0
99	1	1	0.0	-0.49999999999999994	85.0044641670905	0	0	0
100	1	1	0.0	0.0	85.87048957087494	0	0	0
101	1	1	0.0	-0.49999999999999994	86.73651497465937	0	0	0
102	1	1	0.0	0.0	87.6025403784438	0	0	0
103	1	1	0.0	-0.49999999999999994	88.46856578222824	0	0	0
104	1	1	0.0	0.0	89.33459118601267	0	0	0
105	1	1	0.0	-0.49999999999999994	90.20061658979711	0	0	0
106	1	1	0.0	0.0	91.06664199358154	0	0	0
107	1	1	0.0	-0.49999999999999994	91.93266739736598	0	0	0
108	1	1	0.0	0.0	92.79869280115041	0	0	0
109	1	1	0.0	-0.49999999999999994	93.66471820493484	0	0	0
110	1	1	0.0	0.0	94.53074360871928	0	0	0
111	1	1	0.0	-0.49999999999999994	95.39676901250371	0	0	0
112	1	1	0.0	0.0	96.26279441628814	0	0	0
113	1	1	0.0	-0.49999999999999994	97.12881982007258	0	0	0
114	1	1	0.0	0.0	97.99484522385701	0	0	0
115	1	1	0.0	-0.49999999999999994	98.86087062764145	0	0	0
116	1	1	0.0	0.0	99.72689603142588	0	0	0
117	1	1	0.0	-0.49999999999999994	100.59292143521031	0	0	0
118	1	1	0.0	0.0	101.45894683899475	0	0	0
119	1	1	0.0	-0.49999999999999994	102.32497224277918	0	0	0
120	1	1	0.0	0.0	103.19099764656362	0	0	0
121	1	1	0.0	-0.49999999999999994	104.05702305034805	0	0	0
122	1	1	0.0	0.0	104.92304845413248	0	0	0
123	1	1	0.0	-0.49999999999999994	105.78907385791692	0	0	0
124	1	1	0.0	0.0	106.65509926170135	0	0	0
125	1	1	0.0	-0.49999999999999994	107.52112466548579	0	0	0
126	1	1	0.0	0.0	108.38715006927022	0	0	0
127	1	1	0.0	-0.49999999999999994	109.25317547305465	0	0	0
128	1	1	0.0	0.0	110.11920087683909	0	0	0
129	1	1	0.0	-0.49999999999999994	110.98522628062352	0	0	0
130	1	1	0.0	0.0	111.85125168440796	0	0	0
131	1	1	0.0	-0.49999999999999994	112.71727708819239	0	0	0
132	1	1	0.0	0.0	113.58330249197682	0	0	0
133	1	1	0.0	-0.49999999999999994	114.44932789576126	0	0	0
134	1	1	0.0	0.0	115.31535329954569	0	0	0
135	1	1	0.0	-0.49999999999999994	116.18137870333013	0	0	0
136	1	1	0.0	0.0	117.04740410711456	0	0	0
137	1	1	0.0	-0.49999999999999994	117.913429510899	0	0	0
138	1	1	0.0	0.0	118.77945491468343	0	0	0
139	1	1	0.0	-0.49999999999999994	119.64548031846786	0	0	0
140	1	1	0.0	0.0	120.5115057222523	0	0	0
141	1	1	0.0	-0.49999999999999994	121.37753112603673	0	0	0
142	1	1	0.0	0.0	122.24355652982116	0	0	0
143	1	1	0.0	-0.49999999999999994	123.1095819336056	0	0	0
144	1	1	0.0	0.0	123.97560733739003	0	0	0
145	1	1	0.0	-0.49999999999999994	124.84163274117446	0	0	0
146	1	1	0.0	0.0	125.7076581449589	0	0	0
147	1	1	0.0	-0.49999999999999994	126.57368354874333	0	0	0
148	1	1	0.0	0.0	127.43970895252777	0	0	0
149	1	1	0.0	-0.49999999999999994	128.3057343563122	0	0	0
150	1	1	0.0	0.0	129.17175976009665	0	0	0
151	1	1	0.0	-0.49999999999999994	130.0377851638811	0	0	0
152	1	1	0.9186642793421079	-0.4839507255045961	130.43249817690327	0	0	0
153	1	1	1.8373285586842087	-0.6674081525903457	130.78235431063246	0	0	0
154	1	1	2.7559928380263097	-0.45615256665393755	131.11616116986625	0	0	0
155	1	1	3.6746571173684104	-0.6396099937396871	131.46601730359544	0	0	0
156	1	1	4.593321396710511	-0.42835440780327894	131.79982416282922	0	0	0
157	1	1	5.511985676052612	-0.6118118348890285	132.14968029655842	0	0	0
158	1	1	6.430649955394713	-0.4005562489526203	132.4834871557922	0	0	0
159	1	1	7.3493142347368146	-0.5840136760383698	132.8333432895214	0	0	0
160	1	1	8.267978514078916	-0.3727580901019617	133.16715014875518	0	0	0
161	1	1	9.186642793421017	-0.5562155171877112	133.51700628248437	0	0	0
162	1	1	10.105307072763118	-0.3449599312513031	133.85081314171816	0	0	0
163	1	1	11.02397135210522	-0.5284173583370526	134.20066927544735	0	0	0
164	1	1	11.94263563144732	-0.31716177240064447	134.53447613468114	0	0	0
165	1	1	12.861299910789421	-0.500619199486394	134.88433226841033	0	0	0
166	1	1	13.779964190131523	-0.28936361354998585	135.21813912764412	0	0	0
167	1	1	14.698628469473624	-0.47282104063573543	135.5679952613733	0	0	0
168	1	1	15.617292748815725	-0.2615654546993273	135.9018021206071	0	0	0
169	1	1	16.535957028157824	-0.4450228817850769	136.2516582543363	0	0	0
170	1	1	17.454621307499924	-0.23376729584866873	136.58546511357008	0	0	0
171	1	1	18.373285586842023	-0.4172247229344183	136.93532124729927	0	0	0
172	1	1	19.291949866184122	-0.20596913699801017	137.26912810653306	0	0	0
173	1	1	20.210614145526222	-0.38942656408375975	137.61898424026225	0	0	0
174	1	1	21.12927842486832	-0.1781709781473516	137.95279109949604	0	0	0
175	1	1	22.04794270421042	-0.3616284052331012	138.30264723322523	0	0	0
176	1	1	22.96660698355252	-0.15037281929669305	138.63645409245902	0	0	0
177	1	1	23.88527126289462	-0.33383024638244263	138.9863102261882	0	0	0
178	1	1	24.80393554223672	-0.12257466044603449	139.320117085422	0	0	0
179	1	1	25.722599821578818	-0.30603208753178407	139.6699732191512	0	0	0
180	1	1	26.641264100920917	-0.09477650159537593	140.00378007838498	0	0	0
181	1	1	27.559928380263017	-0.2782339286811255	140.35363621211417	0	0	0
182	1	1	28.478592659605116	-0.06697834274471737	140.68744307134796	0	0	0
183	1	1	29.397256938947216	-0.25043576983046695	141.03729920507715	0	0	0
184	1	1	30.315921218289315	-0.039180183894058807	141.37110606431094	0	0	0
185	1	1	31.234585497631414	-0.2226376109798084	141.72096219804013	0	0	0
186	1	1	32.15324977697352	-0.011382025043400246	142.05476905727392	0	0	0
187	1	1	33.07191405631562	-0.19483945212914983	142.4046251910031	0	0	0
188	1	1	33.99057833565772	0.016416133807258315	142.7384320502369	0	0	0
189	1	1	34.909242614999826	-0.16704129327849127	143.08828818396609	0	0	0
190	1	1	35.82790689434193	0.044214292657916876	143.42209504319987	0	0	0
191	1	1	36.74657117368403	-0.1392431344278327	143.77195117692906	0	0	0
192	1	1	37.665235453026135	0.07201245150857544	144.10575803616285	0	0	0
193	1	1	38.58389973236824	-0.11144497557717414	144.45561416989204	0	0	0
194	1	1	39.50256401171034	0.099810610359234	144.78942102912583	0	0	0
195	1	1	40.421228291052444	-0.08364681672651558	145.13927716285502	0	0	0
196	1	1	41.33989257039455	0.12760876920989256	145.4730840220888	0	0	0
197	1	1	42.25855684973665	-0.05584865787585702	145.822940155818	0	0	0
198	1	1	43.17722112907875	0.15540692806055112	146.1567470150518	0	0	0
199	1	1	44.095885408420855	-0.02805049902519846	146.50660314878098	0	0	0
200	1	1	45.01454968776296	0.18320508691120968	146.84041000801477	0	0	0
201	1	1	45.93321396710506	-0.0002523401745399001	147.19026614174396	0	0	0
202	1	1	46.851878246447164	0.21100324576186824	147.52407300097775	0	0	0
203	1	1	47.77054252578927	0.02754581867611866	147.87392913470694	0	0	0
204	1	1	48.68920680513137	0.2388014046125268	148.20773599394073	0	0	0
205	1	1	49.60787108447347	0.05534397752677722	148.55759212766992	0	0	0
206	1	1	50.526535363815576	0.26659956346318536	148.8913989869037	0	0	0
207	1	1	51.44519964315768	0.08314213637743578	149.2412551206329	0	0	0
208	1	1	52.36386392249978	0.2943977223138439	149.5750619798667	0	0	0
209	1	1	53.282528201841885	0.11094029522809434	149.92491811359588	0	0	0
210	1	1	54.20119248118399	0.3221958811645025	150.25872497282967	0	0	0
211	1	1	55.11985676052609	0.1387384540787529	150.60858110655886	0	0	0
212	1	1	56.03852103986819	0.34999404001516105	150.94238796579265	0	0	0
213	1	1	56.957185319210296	0.16653661292941146	151.29224409952184	0	0	0
214	1	1	57.8758495985524	0.3777921988658196	151.62605095875563	0	0	0
215	1	1	58.7945138778945	0.19433477178007003	151.97590709248482	0	0	0
216	1	1	59.713178157236605	0.40559035771647817	152.3097139517186	0	0	0
217	1	1	60.63184243657871	0.2221329306307286	152.6595700854478	0	0	0
218	1	1	61.55050671592081	0.43338851656713673	152.9933769446816	0	0	0
219	1	1	62.469170995262914	0.24993108948138715	153.34323307841078	0	0	0
220	1	1	63.38783527460502	0.4611866754177953	153.67703993764457	0	0	0
221	1	1	64.30649955394712	0.2777292483320457	154.02689607137376	0	0	0
222	1	1	65.22516383328922	0.48898483426845385	154.36070293060754	0	0	0
223	1	1	66.14382811263131	0.30552740718270427	154.71055906433673	0	0	0
224	1	1	67.06249239197341	0.5167829931191124	155.04436592357052	0	0	0
225	1	1	67.9811566713155	0.3333255660333628	155.39422205729971	0	0	0
226	1	1	68.8998209506576	0.544581151969771	155.7280289165335	0	0	0
227	1	1	69.8184852299997	0.3611237248840214	156.0778850502627	0	0	0
228	1	1	70.73714950934179	0.5723793108204296	156.41169190949648	0	0	0
229	1	1	71.65581378868389	0.38892188373468	156.76154804322567	0	0	0
230	1	1	72.57447806802598	0.6001774696710882	157.09535490245946	0	0	0
231	1	1	73.49314234736808	0.4167200425853386	157.44521103618865	0	0	0
232	1	1	74.41180662671017	0.6279756285217468	157.77901789542244	0	0	0
233	1	1	75.33047090605227	0.44451820143599724	158.12887402915163	0	0	0
234	1	1	76.24913518539437	0.6557737873724054	158.46268088838542	0	0	0
235	1	1	77.16779946473646	0.47231636028665586	158.8125370221146	0	0	0
236	1	1	78.08646374407856	0.683571946223064	159.1463438813484	0	0	0
237	1	1	79.00512802342065	0.5001145191373144	159.4962000150776	0	0	0
238	1	1	79.92379230276275	0.7113701050737226	159.83000687431138	0	0	0
239	1	1	80.84245658210484	0.527912677987973	160.17986300804057	0	0	0
240	1	1	81.76112086144694	0.7391682639243812	160.51366986727436	0	0	0
241	1	1	82.67978514078904	0.5557108368386316	160.86352600100355	0	0	0
242	1	1	83.59844942013113	0.7669664227750398	161.19733286023734	0	0	0
243	1	1	84.51711369947323	0.5835089956892903	161.54718899396653	0	0	0
244	1	1	85.43577797881532	0.7947645816256984	161.88099585320032	0	0	0
245	1	1	86.35444225815742	0.6113071545399489	162.2308519869295	0	0	0
246	1	1	87.27310653749952	0.822562740476357	162.5646588461633	0	0	0
247	1	1	88.19177081684161	0.6391053133906075	162.9145149798925	0	0	0
248	1	1	89.1104350961837	0.8503608993270156	163.24832183912628	0	0	0
249	1	1	90.0290993755258	0.6669034722412661	163.59817797285547	0	0	0
250	1	1	90.9477636548679	0.8781590581776743	163.93198483208926	0	0	0
251	1	1	91.86642793421	0.6947016310919247	164.28184096581845	0	0	0
252	1	1	92.78509221355209	0.9059572170283329	164.61564782505224	0	0	0
253	1	1	93.70375649289419	0.7224997899425833	164.96550395878143	0	0	0
254	1	1	94.62242077223628	0.9337553758789915	165.29931081801521	0	0	0
255	1	1	95.54108505157838	0.750297948793242	165.6491669517444	0	0	0
256	1	1	96.45974933092047	0.9615535347296501	165.9829738109782	0	0	0
257	1	1	97.37841361026257	0.7780961076439006	166.33282994470738	0	0	0
258	1	1	98.29707788960467	0.9893516935803087	166.66663680394117	0	0	0
259	1	1	99.21574216894676	0.8058942664945592	167.01649293767036	0	0	0
260	1	1	100.13440644828886	1.0171498524309674	167.35029979690415	0	0	0
261	1	1	101.05307072763095	0.8336924253452178	167.70015593063334	0	0	0
262	1	1	101.97173500697305	1.044948011281626	168.03396278986713	0	0	0
263	1	1	102.89039928631514	0.8614905841958764	168.38381892359632	0	0	0
264	1	1	103.80906356565724	1.0727461701322847	168.7176257828301	0	0	0
265	1	1	104.72772784499934	0.889288743046535	169.0674819165593	0	0	0
266	1	1	105.64639212434143	1.1005443289829433	169.4012887757931	0	0	0
267	1	1	106.56505640368353	0.9170869018971937	169.75114490952228	0	0	0
268	1	1	107.48372068302562	1.128342487833602	170.08495176875607	0	0	0
269	1	1	108.40238496236772	0.9448850607478523	170.43480790248526	0	0	0
270	1	1	109.32104924170982	1.1561406466842605	170.76861476171905	0	0	0
271	1	1	110.23971352105191	0.9726832195985109	171.11847089544824	0	0	0
272	1	1	111.158377800394	1.1839388055349191	171.45227775468203	0	0	0
273	1	1	112.0770420797361	1.0004813784491695	171.80213388841122	0	0	0
274	1	1	112.9957063590782	1.2117369643855778	172.135940747645	0	0	0
275	1	1	113.9143706384203	1.0282795372998281	172.4857968813742	0	0	0
276	1	1	114.83303491776239	1.2395351232362364	172.819603740608	0	0	0
277	1	1	115.75169919710449	1.0560776961504867	173.16945987433718	0	0	0
278	1	1	116.67036347644658	1.267333282086895	173.50326673357097	0	0	0
279	1	1	117.58902775578868	1.0838758550011454	173.85312286730016	0	0	0
280	1	1	118.50769203513077	1.2951314409375536	174.18692972653395	0	0	0
281	1	1	119.42635631447287	1.111674013851804	174.53678586026314	0	0	0
282	1	1	120.34502059381497	1.3229295997882122	174.87059271949693	0	0	0
283	1	1	121.26368487315706	1.1394721727024626	175.22044885322612	0	0	0
284	1	1	122.18234915249916	1.3507277586388708	175.5542557124599	0	0	0
285	1	1	123.10101343184125	1.1672703315531212	175.9041118461891	0	0	0
286	1	1	124.01967771118335	1.3785259174895295	176.23791870542289	0	0	0
287	1	1	124.93834199052544	1.1950684904037798	176.58777483915208	0	0	0
288	1	1	125.85700626986754	1.406324076340188	176.92158169838586	0	0	0
289	1	1	126.77567054920964	1.2228666492544384	177.27143783211505	0	0	0
290	1	1	127.69433482855173	1.4341222351908467	177.60524469134884	0	0	0
291	1	1	128.61299910789384	1.250664808105097	177.95510082507803	0	0	0
292	1	1	129.53166338723594	1.4619203940415053	178.28890768431182	0	0	0
293	1	1	130.45032766657803	1.2784629669557557	178.638763818041	0	0	0
294	1	1	131.36899194592013	1.489718552892164	178.9725706772748	0	0	0
295	1	1	132.28765622526223	1.3062611258064143	179.322426811004	0	0	0
296	1	1	133.20632050460432	1.5175167117428225	179.65623367023778	0	0	0
297	1	1	134.12498478394642	1.334059284657073	180.00608980396697	0	0	0
298	1	1	135.0436490632885	1.5453148705934812	180.33989666320076	0	0	0
299	1	1	135.9623133426306	1.3618574435077315	180.68975279692995	0	0	0
300	1	1	136.8809776219727	1.5731130294441398	181.02355965616374	0	0	0
301	1	1	137.7996419013148	1.3896556023583901	181.37341578989293	0	0	0
302	1	1	-0.2763794355587732	-1.4473779911796198	129.87626318572117	0	0	0
303	1	1	-0.5527588711175442	-2.1870704094474682	129.26269205377534	0	0	0
304	1	1	-0.8291383066763152	-3.088284805875248	129.59649891300913	0	0	0
305	1	1	-1.1055177422350861	-3.8279772241430967	128.9829277810633	0	0	0
306	1	1	-1.3818971777938571	-4.729191620570877	129.31673464029708	0	0	0
307	1	1	-1.658276613352628	-5.468884038838725	128.70316350835125	0	0	0
308	1	1	-1.934656048911399	-6.370098435266505	129.03697036758504	0	0	0
309	1	1	-2.21103548447017	-7.109790853534354	128.4233992356392	0	0	0
310	1	1	-2.4874149200289413	-8.011005249962134	128.757206094873	0	0	0
311	1	1	-2.763794355587712	-8.750697668229982	128.14363496292717	0	0	0
312	1	1	-3.0401737911464832	-9.651912064657763	128.47744182216096	0	0	0
313	1	1	-3.3165532267052544	-10.391604482925612	127.86387069021514	0	0	0
314	1	1	-3.5929326622640256	-11.292818879353392	128.19767754944894	0	0	0
315	1	1	-3.869312097822797	-12.032511297621241	127.58410641750312	0	0	0
316	1	1	-4.145691533381568	-12.933725694049022	127.91791327673691	0	0	0
317	1	1	-4.422070968940338	-13.67341811231687	127.3043421447911	0	0	0
318	1	1	-4.698450404499109	-14.574632508744651	127.63814900402488	0	0	0
319	1	1	-4.97482984005788	-15.3143249270125	127.02457787207906	0	0	0
320	1	1	-5.251209275616651	-16.21553932344028	127.35838473131285	0	0	0
321	1	1	-5.527588711175421	-16.955231741708126	126.74481359936703	0	0	0
322	1	1	-5.803968146734192	-17.856446138135905	127.07862045860082	0	0	0
323	1	1	-6.080347582292963	-18.59613855640375	126.465049326655	0	0	0
324	1	1	-6.356727017851734	-19.49735295283153	126.7988561858888	0	0	0
325	1	1	-6.633106453410504	-20.237045371099377	126.18528505394298	0	0	0
326	1	1	-6.909485888969275	-21.138259767527156	126.51909191317677	0	0	0
327	1	1	-7.185865324528046	-21.877952185795003	125.90552078123095	0	0	0
328	1	1	-7.462244760086817	-22.779166582222782	126.23932764046474	0	0	0
329	1	1	-7.7386241956455875	-23.51885900049063	125.62575650851892	0	0	0
330	1	1	-8.015003631204358	-24.420073396918408	125.95956336775271	0	0	0
331	1	1	-8.29138306676313	-25.159765815186255	125.34599223580689	0	0	0
332	1	1	-8.567762502321902	-26.060980211614034	125.67979909504068	0	0	0
333	1	1	-8.844141937880673	-26.80067262988188	125.06622796309486	0	0	0
334	1	1	-9.120521373439445	-27.70188702630966	125.40003482232865	0	0	0
335	1	1	-9.396900808998216	-28.441579444577506	124.78646369038283	0	0	0
336	1	1	-9.673280244556988	-29.342793841005285	125.12027054961662	0	0	0
337	1	1	-9.94965968011576	-30.082486259273132	124.5066994176708	0	0	0
338	1	1	-10.226039115674531	-30.98370065570091	124.84050627690459	0	0	0
339	1	1	-10.502418551233303	-31.723393073968758	124.22693514495877	0	0	0
340	1	1	-10.778797986792075	-32.62460747039654	124.56074200419256	0	0	0
341	1	1	-11.055177422350846	-33.36429988866439	123.94717087224674	0	0	0
342	1	1	-11.331556857909618	-34.26551428509217	124.28097773148053	0	0	0
343	1	1	-11.60793629346839	-35.005206703360024	123.66740659953471	0	0	0
344	1	1	-11.884315729027161	-35.906421099787806	124.0012134587685	0	0	0
345	1	1	-12.160695164585933	-36.64611351805566	123.38764232682269	0	0	0
346	1	1	-12.437074600144705	-37.54732791448344	123.72144918605647	0	0	0
347	1	1	-12.713454035703476	-38.28702033275129	123.10787805411066	0	0	0
348	1	1	-12.989833471262248	-39.18823472917907	123.44168491334445	0	0	0
349	1	1	-13.26621290682102	-39.92792714744692	122.82811378139863	0	0	0
350	1	1	-13.542592342379791	-40.829141543874705	123.16192064063242	0	0	0
351	1	1	-13.818971777938563	-41.568833962142556	122.5483495086866	0	0	0
352	1	1	-14.095351213497334	-42.47004835857034	122.88215636792039	0	0	0
353	1	1	-14.371730649056106	-43.20974077683819	122.26858523597457	0	0	0
354	1	1	-14.648110084614878	-44.11095517326597	122.60239209520836	0	0	0
355	1	1	-14.92448952017365	-44.85064759153382	121.98882096326254	0	0	0
356	1	1	-15.200868955732421	-45.751861987961604	122.32262782249633	0	0	0
357	1	1	-15.477248391291193	-46.491554406229454	121.70905669055051	0	0	0
358	1	1	-15.753627826849964	-47.39276880265724	122.0428635497843	0	0	0
359	1	1	-16.030007262408734	-48.13246122092509	121.42929241783848	0	0	0
360	1	1	-16.306386697967504	-49.03367561735287	121.76309927707227	0	0	0
361	1	1	-16.582766133526274	-49.77336803562072	121.14952814512645	0	0	0
362	1	1	-16.859145569085044	-50.6745824320485	121.48333500436024	0	0	0
363	1	1	-17.135525004643814	-51.41427485031635	120.86976387241442	0	0	0
364	1	1	-17.411904440202584	-52.315489246744136	121.20357073164821	0	0	0
365	1	1	-17.688283875761353	-53.055181665011986	120.5899995997024	0	0	0
366	1	1	-17.964663311320123	-53.95639606143977	120.92380645893618	0	0	0
367	1	1	-18.241042746878893	-54.69608847970762	120.31023532699037	0	0	0
368	1	1	-18.517422182437663	-55.5973028761354	120.64404218622415	0	0	0
369	1	1	-18.793801617996433	-56.33699529440325	120.03047105427834	0	0	0
370	1	1	-19.070181053555203	-57.238209690831034	120.36427791351213	0	0	0
371	1	1	-19.346560489113973	-57.977902109098885	119.75070678156631	0	0	0
372	1	1	-19.622939924672743	-58.87911650552667	120.0845136408001	0	0	0
373	1	1	-19.899319360231512	-59.61880892379452	119.47094250885428	0	0	0
374	1	1	-20.175698795790282	-60.5200233202223	119.80474936808807	0	0	0
375	1	1	-20.452078231349052	-61.25971573849015	119.19117823614225	0	0	0
376	1	1	-20.728457666907822	-62.16093013491793	119.52498509537604	0	0	0
377	1	1	-21.004837102466592	-62.900622553185784	118.91141396343022	0	0	0
378	1	1	-21.28121653802536	-63.801836949613566	119.24522082266401	0	0	0
379	1	1	-21.55759597358413	-64.54152936788141	118.63164969071819	0	0	0
380	1	1	-21.8339754091429	-65.44274376430918	118.96545654995198	0	0	0
381	1	1	-22.11035484470167	-66.18243618257704	118.35188541800616	0	0	0
382	1	1	-22.38673428026044	-67.08365057900481	118.68569227723995	0	0	0
383	1	1	-22.66311371581921	-67.82334299727266	118.07212114529413	0	0	0
384	1	1	-22.93949315137798	-68.72455739370044	118.40592800452792	0	0	0
385	1	1	-23.21587258693675	-69.46424981196829	117.7923568725821	0	0	0
386	1	1	-23.49225202249552	-70.36546420839606	118.1261637318159	0	0	0
387	1	1	-23.76863145805429	-71.10515662666391	117.51259259987008	0	0	0
388	1	1	-24.04501089361306	-72.00637102309169	117.84639945910386	0	0	0
389	1	1	-24.32139032917183	-72.74606344135954	117.23282832715805	0	0	0
390	1	1	-24.5977697647306	-73.64727783778731	117.56663518639184	0	0	0
391	1	1	-24.87414920028937	-74.38697025605516	116.95306405444602	0	0	0
392	1	1	-25.15052863584814	-75.28818465248294	117.2868709136798	0	0	0
393	1	1	-25.42690807140691	-76.02787707075079	116.67329978173399	0	0	0
394	1	1	-25.70328750696568	-76.92909146717857	117.00710664096778	0	0	0
395	1	1	-25.97966694252445	-77.66878388544642	116.39353550902196	0	0	0
396	1	1	-26.25604637808322	-78.56999828187419	116.72734236825575	0	0	0
397	1	1	-26.53242581364199	-79.30969070014204	116.11377123630993	0	0	0
398	1	1	-26.80880524920076	-80.21090509656982	116.44757809554372	0	0	0
399	1	1	-27.08518468475953	-80.95059751483767	115.8340069635979	0	0	0
400	1	1	-27.3615641203183	-81.85181191126544	116.16781382283169	0	0	0
401	1	1	-27.63794355587707	-82.5915043295333	115.55424269088587	0	0	0
402	1	1	-27.91432299143584	-83.49271872596107	115.88804955011966	0	0	0
403	1	1	-28.19070242699461	-84.23241114422892	115.27447841817384	0	0	0
404	1	1	-28.46708186255338	-85.1336255406567	115.60828527740763	0	0	0
405	1	1	-28.74346129811215	-85.87331795892455	114.99471414546181	0	0	0
406	1	1	-29.019840733670918	-86.77453235535232	115.3285210046956	0	0	0
407	1	1	-29.296220169229688	-87.51422477362017	114.71494987274978	0	0	0
408	1	1	-29.572599604788458	-88.41543917004795	115.04875673198357	0	0	0
409	1	1	-29.848979040347228	-89.1551315883158	114.43518560003776	0	0	0
410	1	1	-30.125358475905998	-90.05634598474357	114.76899245927154	0	0	0
411	1	1	-30.401737911464767	-90.79603840301142	114.15542132732573	0	0	0
412	1	1	-30.678117347023537	-91.6972527994392	114.48922818655952	0	0	0
413	1	1	-30.954496782582307	-92.43694521770705	113.8756570546137	0	0	0
414	1	1	-31.230876218141077	-93.33815961413482	114.20946391384749	0	0	0
415	1	1	-31.507255653699847	-94.07785203240267	113.59589278190167	0	0	0
416	1	1	-31.783635089258617	-94.97906642883045	113.92969964113546	0	0	0
417	1	1	-32.06001452481739	-95.7187588470983	113.31612850918964	0	0	0
418	1	1	-32.336393960376164	-96.61997324352608	113.64993536842343	0	0	0
419	1	1	-32.61277339593494	-97.35966566179393	113.03636423647761	0	0	0
420	1	1	-32.88915283149371	-98.2608800582217	113.3701710957114	0	0	0
421	1	1	-33.165532267052484	-99.00057247648955	112.75659996376558	0	0	0
422	1	1	-33.44191170261126	-99.90178687291733	113.09040682299937	0	0	0
423	1	1	-33.71829113817003	-100.64147929118518	112.47683569105355	0	0	0
424	1	1	-33.994670573728804	-101.54269368761295	112.81064255028734	0	0	0
425	1	1	-34.27105000928758	-102.2823861058808	112.19707141834152	0	0	0
426	1	1	-34.54742944484635	-103.18360050230858	112.53087827757531	0	0	0
427	1	1	-34.823808880405124	-103.92329292057643	111.9173071456295	0	0	0
428	1	1	-35.1001883159639	-104.8245073170042	112.25111400486328	0	0	0
429	1	1	-35.37656775152267	-105.56419973527206	111.63754287291746	0	0	0
430	1	1	-35.652947187081445	-106.46541413169983	111.97134973215125	0	0	0
431	1	1	-35.92932662264022	-107.20510654996768	111.35777860020544	0	0	0
432	1	1	-36.20570605819899	-108.10632094639546	111.69158545943922	0	0	0
433	1	1	-36.482085493757765	-108.8460133646633	111.0780143274934	0	0	0
434	1	1	-36.75846492931654	-109.74722776109108	111.4118211867272	0	0	0
435	1	1	-37.03484436487531	-110.48692017935893	110.79825005478138	0	0	0
436	1	1	-37.311223800434085	-111.38813457578671	111.13205691401517	0	0	0
437	1	1	-37.58760323599286	-112.12782699405456	110.51848578206935	0	0	0
438	1	1	-37.86398267155163	-113.02904139048233	110.85229264130314	0	0	0
439	1	1	-38.140362107110406	-113.76873380875018	110.23872150935732	0	0	0
440	1	1	-38.41674154266918	-114.66994820517796	110.57252836859111	0	0	0
441	1	1	-38.69312097822795	-115.40964062344581	109.95895723664529	0	0	0
442	1	1	-38.969500413786726	-116.31085501987359	110.29276409587908	0	0	0
443	1	1	-39.2458798493455	-117.05054743814144	109.67919296393326	0	0	0
444	1	1	-39.52225928490427	-117.95176183456921	110.01299982316705	0	0	0
445	1	1	-39.798638720463046	-118.69145425283706	109.39942869122123	0	0	0
446	1	1	-40.07501815602182	-119.59266864926484	109.73323555045502	0	0	0
447	1	1	-40.35139759158059	-120.33236106753269	109.1196644185092	0	0	0
448	1	1	-40.627777027139366	-121.23357546396046	109.45347127774299	0	0	0
449	1	1	-40.90415646269814	-121.97326788222831	108.83990014579717	0	0	0
450	1	1	-41.18053589825691	-122.87448227865609	109.17370700503096	0	0	0
451	1	1	-41.45691533381569	-123.61417469692394	108.56013587308514	0	0	0
452	1	1	-0.6422848437833265	-0.0693815721664392	130.67184978918075	0	0	0
453	1	1	-1.284569687566648	-0.01348738697468909	131.43627507624808	0	0	0
454	1	1	-1.9268545313499694	0.6764714235167143	131.77008193548187	0	0	0
455	1	1	-2.569139375133291	0.7323656087084645	132.5345072225492	0	0	0
456	1	1	-3.2114242189166124	1.4223244191998679	132.86831408178298	0	0	0
457	1	1	-3.853709062699934	1.478218604391618	133.6327393688503	0	0	0
458	1	1	-4.495993906483255	2.1681774148830213	133.9665462280841	0	0	0
459	1	1	-5.1382787502665765	2.2240716000747716	134.73097151515142	0	0	0
460	1	1	-5.780563594049898	2.914030410566175	135.0647783743852	0	0	0
461	1	1	-6.42284843783322	2.9699245957579254	135.82920366145254	0	0	0
462	1	1	-7.065133281616541	3.659883406249329	136.16301052068633	0	0	0
463	1	1	-7.707418125399863	3.7157775914410793	136.92743580775365	0	0	0
464	1	1	-8.349702969183184	4.405736401932483	137.26124266698744	0	0	0
465	1	1	-8.991987812966507	4.461630587124233	138.02566795405477	0	0	0
466	1	1	-9.634272656749829	5.151589397615637	138.35947481328856	0	0	0
467	1	1	-10.276557500533151	5.207483582807387	139.12390010035588	0	0	0
468	1	1	-10.918842344316474	5.897442393298791	139.45770695958967	0	0	0
469	1	1	-11.561127188099796	5.953336578490541	140.222132246657	0	0	0