bb351nuc1bl175bn4d30tot700

701 atoms
700 bonds
702 angles

1 atom types
1 bond types
1 angle types

-1000 1000 xlo xhi
-1000 1000 ylo yhi
-1000 1000 zlo zhi

Masses

1 1

Atoms

1	1	1	0.0	0.0	0.0	0	0	0
2	1	1	0.0	0.0	1.0	0	0	0
3	1	1	0.0	-0.49999999999999994	1.8660254037844388	0	0	0
4	1	1	0.0	0.0	2.7320508075688776	0	0	0
5	1	1	0.0	-0.49999999999999994	3.5980762113533165	0	0	0
6	1	1	0.0	0.0	4.464101615137755	0	0	0
7	1	1	0.0	-0.49999999999999994	5.330127018922194	0	0	0
8	1	1	0.0	0.0	6.196152422706632	0	0	0
9	1	1	0.0	-0.49999999999999994	7.06217782649107	0	0	0
10	1	1	0.0	0.0	7.928203230275509	0	0	0
11	1	1	0.0	-0.49999999999999994	8.794228634059948	0	0	0
12	1	1	0.0	0.0	9.660254037844387	0	0	0
13	1	1	0.0	-0.49999999999999994	10.526279441628827	0	0	0
14	1	1	0.0	0.0	11.392304845413266	0	0	0
15	1	1	0.0	-0.49999999999999994	12.258330249197705	0	0	0
16	1	1	0.0	0.0	13.124355652982144	0	0	0
17	1	1	0.0	-0.49999999999999994	13.990381056766584	0	0	0
18	1	1	0.0	0.0	14.856406460551023	0	0	0
19	1	1	0.0	-0.49999999999999994	15.722431864335462	0	0	0
20	1	1	0.0	0.0	16.5884572681199	0	0	0
21	1	1	0.0	-0.49999999999999994	17.454482671904337	0	0	0
22	1	1	0.0	0.0	18.320508075688775	0	0	0
23	1	1	0.0	-0.49999999999999994	19.186533479473212	0	0	0
24	1	1	0.0	0.0	20.05255888325765	0	0	0
25	1	1	0.0	-0.49999999999999994	20.918584287042087	0	0	0
26	1	1	0.0	0.0	21.784609690826525	0	0	0
27	1	1	0.0	-0.49999999999999994	22.650635094610962	0	0	0
28	1	1	0.0	0.0	23.5166604983954	0	0	0
29	1	1	0.0	-0.49999999999999994	24.382685902179837	0	0	0
30	1	1	0.0	0.0	25.248711305964274	0	0	0
31	1	1	0.0	-0.49999999999999994	26.114736709748712	0	0	0
32	1	1	0.0	0.0	26.98076211353315	0	0	0
33	1	1	0.0	-0.49999999999999994	27.846787517317587	0	0	0
34	1	1	0.0	0.0	28.712812921102024	0	0	0
35	1	1	0.0	-0.49999999999999994	29.578838324886462	0	0	0
36	1	1	0.0	0.0	30.4448637286709	0	0	0
37	1	1	0.0	-0.49999999999999994	31.310889132455337	0	0	0
38	1	1	0.0	0.0	32.17691453623978	0	0	0
39	1	1	0.0	-0.49999999999999994	33.04293994002422	0	0	0
40	1	1	0.0	0.0	33.90896534380866	0	0	0
41	1	1	0.0	-0.49999999999999994	34.7749907475931	0	0	0
42	1	1	0.0	0.0	35.64101615137754	0	0	0
43	1	1	0.0	-0.49999999999999994	36.50704155516198	0	0	0
44	1	1	0.0	0.0	37.373066958946424	0	0	0
45	1	1	0.0	-0.49999999999999994	38.239092362730865	0	0	0
46	1	1	0.0	0.0	39.105117766515306	0	0	0
47	1	1	0.0	-0.49999999999999994	39.97114317029975	0	0	0
48	1	1	0.0	0.0	40.83716857408419	0	0	0
49	1	1	0.0	-0.49999999999999994	41.70319397786863	0	0	0
50	1	1	0.0	0.0	42.56921938165307	0	0	0
51	1	1	0.0	-0.49999999999999994	43.43524478543751	0	0	0
52	1	1	0.0	0.0	44.30127018922195	0	0	0
53	1	1	0.0	-0.49999999999999994	45.16729559300639	0	0	0
54	1	1	0.0	0.0	46.033320996790835	0	0	0
55	1	1	0.0	-0.49999999999999994	46.899346400575276	0	0	0
56	1	1	0.0	0.0	47.76537180435972	0	0	0
57	1	1	0.0	-0.49999999999999994	48.63139720814416	0	0	0
58	1	1	0.0	0.0	49.4974226119286	0	0	0
59	1	1	0.0	-0.49999999999999994	50.36344801571304	0	0	0
60	1	1	0.0	0.0	51.22947341949748	0	0	0
61	1	1	0.0	-0.49999999999999994	52.09549882328192	0	0	0
62	1	1	0.0	0.0	52.96152422706636	0	0	0
63	1	1	0.0	-0.49999999999999994	53.827549630850804	0	0	0
64	1	1	0.0	0.0	54.693575034635245	0	0	0
65	1	1	0.0	-0.49999999999999994	55.559600438419686	0	0	0
66	1	1	0.0	0.0	56.42562584220413	0	0	0
67	1	1	0.0	-0.49999999999999994	57.29165124598857	0	0	0
68	1	1	0.0	0.0	58.15767664977301	0	0	0
69	1	1	0.0	-0.49999999999999994	59.02370205355745	0	0	0
70	1	1	0.0	0.0	59.88972745734189	0	0	0
71	1	1	0.0	-0.49999999999999994	60.75575286112633	0	0	0
72	1	1	0.0	0.0	61.62177826491077	0	0	0
73	1	1	0.0	-0.49999999999999994	62.487803668695214	0	0	0
74	1	1	0.0	0.0	63.353829072479655	0	0	0
75	1	1	0.0	-0.49999999999999994	64.21985447626409	0	0	0
76	1	1	0.0	0.0	65.08587988004852	0	0	0
77	1	1	0.0	-0.49999999999999994	65.95190528383296	0	0	0
78	1	1	0.0	0.0	66.81793068761739	0	0	0
79	1	1	0.0	-0.49999999999999994	67.68395609140183	0	0	0
80	1	1	0.0	0.0	68.54998149518626	0	0	0
81	1	1	0.0	-0.49999999999999994	69.41600689897069	0	0	0
82	1	1	0.0	0.0	70.28203230275513	0	0	0
83	1	1	0.0	-0.49999999999999994	71.14805770653956	0	0	0
84	1	1	0.0	0.0	72.014083110324	0	0	0
85	1	1	0.0	-0.49999999999999994	72.88010851410843	0	0	0
86	1	1	0.0	0.0	73.74613391789286	0	0	0
87	1	1	0.0	-0.49999999999999994	74.6121593216773	0	0	0
88	1	1	0.0	0.0	75.47818472546173	0	0	0
89	1	1	0.0	-0.49999999999999994	76.34421012924616	0	0	0
90	1	1	0.0	0.0	77.2102355330306	0	0	0
91	1	1	0.0	-0.49999999999999994	78.07626093681503	0	0	0
92	1	1	0.0	0.0	78.94228634059947	0	0	0
93	1	1	0.0	-0.49999999999999994	79.8083117443839	0	0	0
94	1	1	0.0	0.0	80.67433714816833	0	0	0
95	1	1	0.0	-0.49999999999999994	81.54036255195277	0	0	0
96	1	1	0.0	0.0	82.4063879557372	0	0	0
97	1	1	0.0	-0.49999999999999994	83.27241335952164	0	0	0
98	1	1	0.0	0.0	84.13843876330607	0	0	0
99	1	1	0.0	-0.49999999999999994	85.0044641670905	0	0	0
100	1	1	0.0	0.0	85.87048957087494	0	0	0
101	1	1	0.0	-0.49999999999999994	86.73651497465937	0	0	0
102	1	1	0.0	0.0	87.6025403784438	0	0	0
103	1	1	0.0	-0.49999999999999994	88.46856578222824	0	0	0
104	1	1	0.0	0.0	89.33459118601267	0	0	0
105	1	1	0.0	-0.49999999999999994	90.20061658979711	0	0	0
106	1	1	0.0	0.0	91.06664199358154	0	0	0
107	1	1	0.0	-0.49999999999999994	91.93266739736598	0	0	0
108	1	1	0.0	0.0	92.79869280115041	0	0	0
109	1	1	0.0	-0.49999999999999994	93.66471820493484	0	0	0
110	1	1	0.0	0.0	94.53074360871928	0	0	0
111	1	1	0.0	-0.49999999999999994	95.39676901250371	0	0	0
112	1	1	0.0	0.0	96.26279441628814	0	0	0
113	1	1	0.0	-0.49999999999999994	97.12881982007258	0	0	0
114	1	1	0.0	0.0	97.99484522385701	0	0	0
115	1	1	0.0	-0.49999999999999994	98.86087062764145	0	0	0
116	1	1	0.0	0.0	99.72689603142588	0	0	0
117	1	1	0.0	-0.49999999999999994	100.59292143521031	0	0	0
118	1	1	0.0	0.0	101.45894683899475	0	0	0
119	1	1	0.0	-0.49999999999999994	102.32497224277918	0	0	0
120	1	1	0.0	0.0	103.19099764656362	0	0	0
121	1	1	0.0	-0.49999999999999994	104.05702305034805	0	0	0
122	1	1	0.0	0.0	104.92304845413248	0	0	0
123	1	1	0.0	-0.49999999999999994	105.78907385791692	0	0	0
124	1	1	0.0	0.0	106.65509926170135	0	0	0
125	1	1	0.0	-0.49999999999999994	107.52112466548579	0	0	0
126	1	1	0.0	0.0	108.38715006927022	0	0	0
127	1	1	0.0	-0.49999999999999994	109.25317547305465	0	0	0
128	1	1	0.0	0.0	110.11920087683909	0	0	0
129	1	1	0.0	-0.49999999999999994	110.98522628062352	0	0	0
130	1	1	0.0	0.0	111.85125168440796	0	0	0
131	1	1	0.0	-0.49999999999999994	112.71727708819239	0	0	0
132	1	1	0.0	0.0	113.58330249197682	0	0	0
133	1	1	0.0	-0.49999999999999994	114.44932789576126	0	0	0
134	1	1	0.0	0.0	115.31535329954569	0	0	0
135	1	1	0.0	-0.49999999999999994	116.18137870333013	0	0	0
136	1	1	0.0	0.0	117.04740410711456	0	0	0
137	1	1	0.0	-0.49999999999999994	117.913429510899	0	0	0
138	1	1	0.0	0.0	118.77945491468343	0	0	0
139	1	1	0.0	-0.49999999999999994	119.64548031846786	0	0	0
140	1	1	0.0	0.0	120.5115057222523	0	0	0
141	1	1	0.0	-0.49999999999999994	121.37753112603673	0	0	0
142	1	1	0.0	0.0	122.24355652982116	0	0	0
143	1	1	0.0	-0.49999999999999994	123.1095819336056	0	0	0
144	1	1	0.0	0.0	123.97560733739003	0	0	0
145	1	1	0.0	-0.49999999999999994	124.84163274117446	0	0	0
146	1	1	0.0	0.0	125.7076581449589	0	0	0
147	1	1	0.0	-0.49999999999999994	126.57368354874333	0	0	0
148	1	1	0.0	0.0	127.43970895252777	0	0	0
149	1	1	0.0	-0.49999999999999994	128.3057343563122	0	0	0
150	1	1	0.0	0.0	129.17175976009665	0	0	0
151	1	1	0.0	-0.49999999999999994	130.0377851638811	0	0	0
152	1	1	0.0	0.0	130.90381056766554	0	0	0
153	1	1	0.0	-0.49999999999999994	131.76983597145	0	0	0
154	1	1	0.0	0.0	132.63586137523444	0	0	0
155	1	1	0.0	-0.49999999999999994	133.5018867790189	0	0	0
156	1	1	0.0	0.0	134.36791218280334	0	0	0
157	1	1	0.0	-0.49999999999999994	135.23393758658779	0	0	0
158	1	1	0.0	0.0	136.09996299037223	0	0	0
159	1	1	0.0	-0.49999999999999994	136.96598839415668	0	0	0
160	1	1	0.0	0.0	137.83201379794113	0	0	0
161	1	1	0.0	-0.49999999999999994	138.69803920172558	0	0	0
162	1	1	0.0	0.0	139.56406460551003	0	0	0
163	1	1	0.0	-0.49999999999999994	140.43009000929447	0	0	0
164	1	1	0.0	0.0	141.29611541307892	0	0	0
165	1	1	0.0	-0.49999999999999994	142.16214081686337	0	0	0
166	1	1	0.0	0.0	143.02816622064782	0	0	0
167	1	1	0.0	-0.49999999999999994	143.89419162443227	0	0	0
168	1	1	0.0	0.0	144.76021702821672	0	0	0
169	1	1	0.0	-0.49999999999999994	145.62624243200116	0	0	0
170	1	1	0.0	0.0	146.4922678357856	0	0	0
171	1	1	0.0	-0.49999999999999994	147.35829323957006	0	0	0
172	1	1	0.0	0.0	148.2243186433545	0	0	0
173	1	1	0.0	-0.49999999999999994	149.09034404713896	0	0	0
174	1	1	0.0	0.0	149.9563694509234	0	0	0
175	1	1	0.0	-0.49999999999999994	150.82239485470785	0	0	0
176	1	1	0.0	0.0	151.6884202584923	0	0	0
177	1	1	-0.24842821332320342	0.9543945741164024	151.522847254285	0	0	0
178	1	1	-0.4968564266464048	1.8637110226388762	151.8566541135188	0	0	0
179	1	1	-0.7452846399696061	2.6074544669540582	151.23606639863618	0	0	0
180	1	1	-0.9937128532928075	3.516770915476532	151.56987325786997	0	0	0
181	1	1	-1.2421410666160089	4.260514359791714	150.94928554298735	0	0	0
182	1	1	-1.4905692799392103	5.169830808314188	151.28309240222114	0	0	0
183	1	1	-1.7389974932624117	5.91357425262937	150.66250468733853	0	0	0
184	1	1	-1.9874257065856131	6.822890701151844	150.99631154657231	0	0	0
185	1	1	-2.2358539199088145	7.5666341454670265	150.3757238316897	0	0	0
186	1	1	-2.484282133232016	8.4759505939895	150.7095306909235	0	0	0
187	1	1	-2.7327103465552174	9.219694038304683	150.08894297604087	0	0	0
188	1	1	-2.981138559878419	10.129010486827156	150.42274983527466	0	0	0
189	1	1	-3.2295667732016202	10.872753931142338	149.80216212039204	0	0	0
190	1	1	-3.4779949865248216	11.782070379664813	150.13596897962583	0	0	0
191	1	1	-3.726423199848023	12.525813823979995	149.5153812647432	0	0	0
192	1	1	-3.9748514131712245	13.43513027250247	149.849188123977	0	0	0
193	1	1	-4.223279626494426	14.178873716817652	149.22860040909438	0	0	0
194	1	1	-4.471707839817627	15.088190165340126	149.56240726832817	0	0	0
195	1	1	-4.720136053140829	15.831933609655309	148.94181955344555	0	0	0
196	1	1	-4.96856426646403	16.741250058177783	149.27562641267934	0	0	0
197	1	1	-5.216992479787232	17.484993502492966	148.65503869779673	0	0	0
198	1	1	-5.465420693110433	18.39430995101544	148.98884555703052	0	0	0
199	1	1	-5.713848906433634	19.138053395330623	148.3682578421479	0	0	0
200	1	1	-5.962277119756836	20.047369843853097	148.7020647013817	0	0	0
201	1	1	-6.210705333080037	20.79111328816828	148.08147698649907	0	0	0
202	1	1	-6.459133546403239	21.700429736690754	148.41528384573286	0	0	0
203	1	1	-6.70756175972644	22.444173181005937	147.79469613085024	0	0	0
204	1	1	-6.9559899730496415	23.35348962952841	148.12850299008403	0	0	0
205	1	1	-7.204418186372843	24.097233073843594	147.5079152752014	0	0	0
206	1	1	-7.452846399696044	25.00654952236607	147.8417221344352	0	0	0
207	1	1	-7.701274613019246	25.75029296668125	147.22113441955258	0	0	0
208	1	1	-7.949702826342447	26.659609415203725	147.55494127878637	0	0	0
209	1	1	-8.198131039665649	27.403352859518908	146.93435356390376	0	0	0
210	1	1	-8.44655925298885	28.312669308041382	147.26816042313754	0	0	0
211	1	1	-8.694987466312051	29.056412752356565	146.64757270825493	0	0	0
212	1	1	-8.943415679635253	29.96572920087904	146.98137956748872	0	0	0
213	1	1	-9.191843892958454	30.70947264519422	146.3607918526061	0	0	0
214	1	1	-9.440272106281656	31.618789093716696	146.6945987118399	0	0	0
215	1	1	-9.688700319604857	32.36253253803188	146.07401099695727	0	0	0
216	1	1	-9.937128532928059	33.27184898655435	146.40781785619106	0	0	0
217	1	1	-10.18555674625126	34.01559243086953	145.78723014130844	0	0	0
218	1	1	-10.433984959574461	34.92490887939201	146.12103700054223	0	0	0
219	1	1	-10.682413172897663	35.66865232370719	145.5004492856596	0	0	0
220	1	1	-10.930841386220864	36.57796877222967	145.8342561448934	0	0	0
221	1	1	-11.179269599544066	37.32171221654485	145.21366843001078	0	0	0
222	1	1	-11.427697812867267	38.23102866506733	145.54747528924457	0	0	0
223	1	1	-11.676126026190468	38.97477210938251	144.92688757436196	0	0	0
224	1	1	-11.92455423951367	39.88408855790499	145.26069443359575	0	0	0
225	1	1	-12.172982452836871	40.627832002220174	144.64010671871313	0	0	0
226	1	1	-12.421410666160073	41.53714845074265	144.97391357794692	0	0	0
227	1	1	-12.669838879483274	42.280891895057835	144.3533258630643	0	0	0
228	1	1	-12.918267092806476	43.19020834358031	144.6871327222981	0	0	0
229	1	1	-13.166695306129677	43.933951787895495	144.06654500741547	0	0	0
230	1	1	-13.415123519452878	44.84326823641797	144.40035186664926	0	0	0
231	1	1	-13.66355173277608	45.587011680733156	143.77976415176664	0	0	0
232	1	1	-13.911979946099281	46.49632812925563	144.11357101100043	0	0	0
233	1	1	-14.160408159422483	47.240071573570816	143.4929832961178	0	0	0
234	1	1	-14.408836372745684	48.14938802209329	143.8267901553516	0	0	0
235	1	1	-14.657264586068885	48.89313146640848	143.20620244046899	0	0	0
236	1	1	-14.905692799392087	49.80244791493095	143.54000929970277	0	0	0
237	1	1	-15.154121012715288	50.54619135924614	142.91942158482016	0	0	0
238	1	1	-15.40254922603849	51.45550780776861	143.25322844405395	0	0	0
239	1	1	-15.650977439361691	52.1992512520838	142.63264072917133	0	0	0
240	1	1	-15.899405652684893	53.10856770060627	142.96644758840512	0	0	0
241	1	1	-16.147833866008092	53.85231114492146	142.3458598735225	0	0	0
242	1	1	-16.396262079331294	54.76162759344393	142.6796667327563	0	0	0
243	1	1	-16.644690292654495	55.50537103775912	142.05907901787367	0	0	0
244	1	1	-16.893118505977696	56.41468748628159	142.39288587710746	0	0	0
245	1	1	-17.141546719300898	57.15843093059678	141.77229816222484	0	0	0
246	1	1	-17.3899749326241	58.067747379119254	142.10610502145863	0	0	0
247	1	1	-17.6384031459473	58.81149082343444	141.485517306576	0	0	0
248	1	1	-17.886831359270502	59.720807271956915	141.8193241658098	0	0	0
249	1	1	-18.135259572593704	60.4645507162721	141.19873645092719	0	0	0
250	1	1	-18.383687785916905	61.373867164794575	141.53254331016097	0	0	0
251	1	1	-18.632115999240106	62.11761060910976	140.91195559527836	0	0	0
252	1	1	-18.880544212563308	63.026927057632236	141.24576245451215	0	0	0
253	1	1	-19.12897242588651	63.77067050194742	140.62517473962953	0	0	0
254	1	1	-19.37740063920971	64.6799869504699	140.95898159886332	0	0	0
255	1	1	-19.625828852532912	65.42373039478508	140.3383938839807	0	0	0
256	1	1	-19.874257065856114	66.33304684330756	140.6722007432145	0	0	0
257	1	1	-20.122685279179315	67.07679028762274	140.05161302833187	0	0	0
258	1	1	-20.371113492502516	67.98610673614522	140.38541988756566	0	0	0
259	1	1	-20.619541705825718	68.7298501804604	139.76483217268304	0	0	0
260	1	1	-20.86796991914892	69.63916662898288	140.09863903191683	0	0	0
261	1	1	-21.11639813247212	70.38291007329806	139.47805131703421	0	0	0
262	1	1	-21.364826345795322	71.29222652182054	139.811858176268	0	0	0
263	1	1	-21.613254559118523	72.03596996613572	139.1912704613854	0	0	0
264	1	1	-21.861682772441725	72.9452864146582	139.52507732061918	0	0	0
265	1	1	-22.110110985764926	73.68902985897338	138.90448960573656	0	0	0
266	1	1	-22.358539199088128	74.59834630749586	139.23829646497035	0	0	0
267	1	1	-22.60696741241133	75.34208975181105	138.61770875008773	0	0	0
268	1	1	-22.85539562573453	76.25140620033352	138.95151560932152	0	0	0
269	1	1	-23.103823839057732	76.9951496446487	138.3309278944389	0	0	0
270	1	1	-23.352252052380933	77.90446609317118	138.6647347536727	0	0	0
271	1	1	-23.600680265704135	78.64820953748637	138.04414703879007	0	0	0
272	1	1	-23.849108479027336	79.55752598600884	138.37795389802386	0	0	0
273	1	1	-24.097536692350538	80.30126943032403	137.75736618314124	0	0	0
274	1	1	-24.34596490567374	81.2105858788465	138.09117304237503	0	0	0
275	1	1	-24.59439311899694	81.95432932316169	137.47058532749242	0	0	0
276	1	1	-24.842821332320142	82.86364577168416	137.8043921867262	0	0	0
277	1	1	-25.091249545643343	83.60738921599935	137.1838044718436	0	0	0
278	1	1	-25.339677758966545	84.51670566452182	137.51761133107738	0	0	0
279	1	1	-25.588105972289746	85.26044910883701	136.89702361619476	0	0	0
280	1	1	-25.836534185612948	86.16976555735948	137.23083047542855	0	0	0
281	1	1	-26.08496239893615	86.91350900167467	136.61024276054593	0	0	0
282	1	1	-26.33339061225935	87.82282545019714	136.94404961977972	0	0	0
283	1	1	-26.581818825582552	88.56656889451233	136.3234619048971	0	0	0
284	1	1	-26.830247038905753	89.4758853430348	136.6572687641309	0	0	0
285	1	1	-27.078675252228955	90.21962878734999	136.03668104924827	0	0	0
286	1	1	-27.327103465552156	91.12894523587246	136.37048790848206	0	0	0
287	1	1	-27.575531678875357	91.87268868018765	135.74990019359944	0	0	0
288	1	1	-27.82395989219856	92.78200512871013	136.08370705283323	0	0	0
289	1	1	-28.07238810552176	93.52574857302531	135.46311933795062	0	0	0
290	1	1	-28.32081631884496	94.43506502154779	135.7969261971844	0	0	0
291	1	1	-28.569244532168163	95.17880846586297	135.1763384823018	0	0	0
292	1	1	-28.817672745491365	96.08812491438545	135.51014534153558	0	0	0
293	1	1	-29.066100958814566	96.83186835870063	134.88955762665296	0	0	0
294	1	1	-29.314529172137767	97.7411848072231	135.22336448588675	0	0	0
295	1	1	-29.56295738546097	98.48492825153829	134.60277677100413	0	0	0
296	1	1	-29.81138559878417	99.39424470006077	134.93658363023792	0	0	0
297	1	1	-30.05981381210737	100.13798814437595	134.3159959153553	0	0	0
298	1	1	-30.308242025430573	101.04730459289843	134.6498027745891	0	0	0
299	1	1	-30.556670238753775	101.79104803721361	134.02921505970647	0	0	0
300	1	1	-30.805098452076976	102.70036448573609	134.36302191894026	0	0	0
301	1	1	-31.053526665400177	103.44410793005127	133.74243420405764	0	0	0
302	1	1	-31.30195487872338	104.35342437857375	134.07624106329143	0	0	0
303	1	1	-31.55038309204658	105.09716782288893	133.45565334840882	0	0	0
304	1	1	-31.79881130536978	106.00648427141141	133.7894602076426	0	0	0
305	1	1	-32.04723951869298	106.7502277157266	133.16887249276	0	0	0
306	1	1	-32.295667732016184	107.65954416424907	133.50267935199378	0	0	0
307	1	1	-32.544095945339386	108.40328760856426	132.88209163711116	0	0	0
308	1	1	-32.79252415866259	109.31260405708673	133.21589849634495	0	0	0
309	1	1	-33.04095237198579	110.05634750140192	132.59531078146233	0	0	0
310	1	1	-33.28938058530899	110.96566394992439	132.92911764069612	0	0	0
311	1	1	-33.53780879863219	111.70940739423958	132.3085299258135	0	0	0
312	1	1	-33.78623701195539	112.61872384276205	132.6423367850473	0	0	0
313	1	1	-34.034665225278594	113.36246728707724	132.02174907016467	0	0	0
314	1	1	-34.283093438601796	114.27178373559971	132.35555592939846	0	0	0
315	1	1	-34.531521651925	115.0155271799149	131.73496821451585	0	0	0
316	1	1	-34.7799498652482	115.92484362843737	132.06877507374963	0	0	0
317	1	1	-35.0283780785714	116.66858707275256	131.44818735886702	0	0	0
318	1	1	-35.2768062918946	117.57790352127503	131.7819942181008	0	0	0
319	1	1	-35.5252345052178	118.32164696559022	131.1614065032182	0	0	0
320	1	1	-35.773662718541004	119.2309634141127	131.49521336245198	0	0	0
321	1	1	-36.022090931864206	119.97470685842788	130.87462564756936	0	0	0
322	1	1	-36.27051914518741	120.88402330695035	131.20843250680315	0	0	0
323	1	1	-36.51894735851061	121.62776675126554	130.58784479192053	0	0	0
324	1	1	-36.76737557183381	122.53708319978801	130.92165165115432	0	0	0
325	1	1	-37.01580378515701	123.2808266441032	130.3010639362717	0	0	0
326	1	1	-37.26423199848021	124.19014309262568	130.6348707955055	0	0	0
327	1	1	-37.512660211803414	124.93388653694086	130.01428308062287	0	0	0
328	1	1	-37.761088425126616	125.84320298546334	130.34808993985666	0	0	0
329	1	1	-38.00951663844982	126.58694642977852	129.72750222497405	0	0	0
330	1	1	-38.25794485177302	127.496262878301	130.06130908420783	0	0	0
331	1	1	-38.50637306509622	128.24000632261618	129.44072136932522	0	0	0
332	1	1	-38.75480127841942	129.14932277113866	129.774528228559	0	0	0
333	1	1	-39.00322949174262	129.89306621545384	129.1539405136764	0	0	0
334	1	1	-39.251657705065824	130.80238266397632	129.48774737291018	0	0	0
335	1	1	-39.500085918389026	131.5461261082915	128.86715965802756	0	0	0
336	1	1	-39.74851413171223	132.45544255681398	129.20096651726135	0	0	0
337	1	1	-39.99694234503543	133.19918600112916	128.58037880237873	0	0	0
338	1	1	-40.24537055835863	134.10850244965164	128.91418566161252	0	0	0
339	1	1	-40.49379877168183	134.85224589396682	128.2935979467299	0	0	0
340	1	1	-40.74222698500503	135.7615623424893	128.6274048059637	0	0	0
341	1	1	-40.990655198328234	136.50530578680448	128.00681709108107	0	0	0
342	1	1	-41.239083411651436	137.41462223532696	128.34062395031486	0	0	0
343	1	1	-41.48751162497464	138.15836567964215	127.72003623543225	0	0	0
344	1	1	-41.73593983829784	139.06768212816462	128.05384309466604	0	0	0
345	1	1	-41.98436805162104	139.8114255724798	127.43325537978342	0	0	0
346	1	1	-42.23279626494424	140.72074202100228	127.76706223901719	0	0	0
347	1	1	-42.48122447826744	141.46448546531747	127.14647452413458	0	0	0
348	1	1	-42.729652691590644	142.37380191383994	127.48028138336835	0	0	0
349	1	1	-42.978080904913845	143.11754535815513	126.85969366848573	0	0	0
350	1	1	-43.22650911823705	144.0268618066776	127.19350052771951	0	0	0
351	1	1	-43.47493733156025	144.7706052509928	126.57291281283689	0	0	0
352	1	1	0.9117052511611125	-0.04052098264048362	152.09726201879954	0	0	0
353	1	1	1.8234105023222176	-0.28003406314706625	152.4310688780333	0	0	0
354	1	1	2.735115753483323	-0.11070538334641711	152.80539671990755	0	0	0
355	1	1	3.646821004644428	-0.35021846385299976	153.1392035791413	0	0	0
356	1	1	4.558526255805533	-0.18088978405235062	153.51353142101556	0	0	0
357	1	1	5.470231506966638	-0.4204028645589333	153.84733828024932	0	0	0
358	1	1	6.381936758127742	-0.25107418475828414	154.22166612212357	0	0	0
359	1	1	7.293642009288847	-0.4905872652648668	154.55547298135733	0	0	0
360	1	1	8.205347260449953	-0.32125858546421765	154.92980082323157	0	0	0
361	1	1	9.117052511611059	-0.5607716659708003	155.26360768246533	0	0	0
362	1	1	10.028757762772164	-0.39144298617015116	155.63793552433958	0	0	0
363	1	1	10.94046301393327	-0.6309560666767338	155.97174238357334	0	0	0
364	1	1	11.852168265094376	-0.4616273868760846	156.3460702254476	0	0	0
365	1	1	12.763873516255481	-0.7011404673826673	156.67987708468135	0	0	0
366	1	1	13.675578767416587	-0.5318117875820182	157.0542049265556	0	0	0
367	1	1	14.587284018577693	-0.7713248680886009	157.38801178578936	0	0	0
368	1	1	15.498989269738798	-0.6019961882879518	157.7623396276636	0	0	0
369	1	1	16.410694520899902	-0.8415092687945345	158.09614648689737	0	0	0
370	1	1	17.322399772061008	-0.6721805889938853	158.47047432877162	0	0	0
371	1	1	18.234105023222114	-0.911693669500468	158.80428118800538	0	0	0
372	1	1	19.14581027438322	-0.7423649896998189	159.17860902987962	0	0	0
373	1	1	20.057515525544325	-0.9818780702064016	159.51241588911338	0	0	0
374	1	1	20.96922077670543	-0.8125493904057525	159.88674373098763	0	0	0
375	1	1	21.880926027866536	-1.0520624709123352	160.2205505902214	0	0	0
376	1	1	22.792631279027642	-0.882733791111686	160.59487843209564	0	0	0
377	1	1	23.704336530188748	-1.1222468716182687	160.9286852913294	0	0	0
378	1	1	24.616041781349853	-0.9529181918176196	161.30301313320365	0	0	0
379	1	1	25.52774703251096	-1.1924312723242023	161.6368199924374	0	0	0
380	1	1	26.439452283672065	-1.023102592523553	162.01114783431166	0	0	0
381	1	1	27.35115753483317	-1.2626156730301357	162.34495469354542	0	0	0
382	1	1	28.262862785994276	-1.0932869932294866	162.71928253541967	0	0	0
383	1	1	29.17456803715538	-1.3328000737360692	163.05308939465343	0	0	0
384	1	1	30.086273288316487	-1.1634713939354202	163.42741723652767	0	0	0
385	1	1	30.997978539477593	-1.4029844744420028	163.76122409576143	0	0	0
386	1	1	31.9096837906387	-1.2336557946413538	164.13555193763568	0	0	0
387	1	1	32.821389041799804	-1.4731688751479364	164.46935879686944	0	0	0
388	1	1	33.73309429296091	-1.3038401953472873	164.8436866387437	0	0	0
389	1	1	34.64479954412201	-1.54335327585387	165.17749349797745	0	0	0
390	1	1	35.55650479528311	-1.374024596053221	165.5518213398517	0	0	0
391	1	1	36.46821004644421	-1.6135376765598035	165.88562819908546	0	0	0
392	1	1	37.379915297605315	-1.4442089967591545	166.2599560409597	0	0	0
393	1	1	38.29162054876642	-1.683722077265737	166.59376290019347	0	0	0
394	1	1	39.20332579992752	-1.514393397465088	166.96809074206772	0	0	0
395	1	1	40.11503105108862	-1.7539064779716707	167.30189760130148	0	0	0
396	1	1	41.026736302249724	-1.5845777981710216	167.67622544317572	0	0	0
397	1	1	41.938441553410826	-1.8240908786776042	168.01003230240948	0	0	0
398	1	1	42.85014680457193	-1.6547621988769552	168.38436014428373	0	0	0
399	1	1	43.76185205573303	-1.8942752793835378	168.7181670035175	0	0	0
400	1	1	44.67355730689413	-1.7249465995828888	169.09249484539174	0	0	0
401	1	1	45.585262558055234	-1.9644596800894714	169.4263017046255	0	0	0
402	1	1	46.496967809216336	-1.7951310002888223	169.80062954649975	0	0	0
403	1	1	47.40867306037744	-2.034644080795405	170.1344364057335	0	0	0
404	1	1	48.32037831153854	-1.865315400994756	170.50876424760776	0	0	0
405	1	1	49.23208356269964	-2.1048284815013387	170.84257110684152	0	0	0
406	1	1	50.143788813860745	-1.9354998017006895	171.21689894871577	0	0	0
407	1	1	51.05549406502185	-2.1750128822072723	171.55070580794953	0	0	0
408	1	1	51.96719931618295	-2.005684202406623	171.92503364982377	0	0	0
409	1	1	52.87890456734405	-2.245197282913206	172.25884050905753	0	0	0
410	1	1	53.79060981850515	-2.0758686031125566	172.63316835093178	0	0	0
411	1	1	54.702315069666255	-2.3153816836191394	172.96697521016554	0	0	0
412	1	1	55.61402032082736	-2.14605300381849	173.3413030520398	0	0	0
413	1	1	56.52572557198846	-2.385566084325073	173.67510991127355	0	0	0
414	1	1	57.43743082314956	-2.2162374045244237	174.0494377531478	0	0	0
415	1	1	58.349136074310664	-2.4557504850310066	174.38324461238156	0	0	0
416	1	1	59.260841325471766	-2.2864218052303573	174.7575724542558	0	0	0
417	1	1	60.17254657663287	-2.52593488573694	175.09137931348957	0	0	0
418	1	1	61.08425182779397	-2.356606205936291	175.46570715536382	0	0	0
419	1	1	61.99595707895507	-2.5961192864428737	175.79951401459758	0	0	0
420	1	1	62.907662330116175	-2.4267906066422245	176.17384185647182	0	0	0
421	1	1	63.81936758127728	-2.6663036871488073	176.50764871570559	0	0	0
422	1	1	64.73107283243839	-2.496975007348158	176.88197655757983	0	0	0
423	1	1	65.6427780835995	-2.736488087854741	177.2157834168136	0	0	0
424	1	1	66.5544833347606	-2.5671594080540916	177.59011125868784	0	0	0
425	1	1	67.46618858592171	-2.8066724885606744	177.9239181179216	0	0	0
426	1	1	68.37789383708282	-2.637343808760025	178.29824595979585	0	0	0
427	1	1	69.28959908824393	-2.876856889266608	178.6320528190296	0	0	0
428	1	1	70.20130433940504	-2.7075282094659587	179.00638066090386	0	0	0
429	1	1	71.11300959056615	-2.9470412899725416	179.34018752013762	0	0	0
430	1	1	72.02471484172726	-2.7777126101718923	179.71451536201187	0	0	0
431	1	1	72.93642009288837	-3.017225690678475	180.04832222124563	0	0	0
432	1	1	73.84812534404948	-2.847897010877826	180.42265006311987	0	0	0
433	1	1	74.75983059521059	-3.0874100913844087	180.75645692235364	0	0	0
434	1	1	75.6715358463717	-2.9180814115837594	181.13078476422788	0	0	0
435	1	1	76.5832410975328	-3.1575944920903423	181.46459162346164	0	0	0
436	1	1	77.49494634869392	-2.988265812289693	181.8389194653359	0	0	0
437	1	1	78.40665159985502	-3.227778892796276	182.17272632456965	0	0	0
438	1	1	79.31835685101613	-3.0584502129956266	182.5470541664439	0	0	0
439	1	1	80.23006210217724	-3.2979632935022094	182.88086102567766	0	0	0
440	1	1	81.14176735333835	-3.12863461370156	183.2551888675519	0	0	0
441	1	1	82.05347260449946	-3.368147694208143	183.58899572678567	0	0	0
442	1	1	82.96517785566057	-3.1988190144074937	183.96332356865992	0	0	0
443	1	1	83.87688310682168	-3.4383320949140765	184.29713042789368	0	0	0
444	1	1	84.78858835798279	-3.2690034151134273	184.67145826976792	0	0	0
445	1	1	85.7002936091439	-3.50851649562001	185.00526512900169	0	0	0
446	1	1	86.61199886030501	-3.339187815819361	185.37959297087593	0	0	0
447	1	1	87.52370411146612	-3.5787008963259437	185.7133998301097	0	0	0
448	1	1	88.43540936262723	-3.4093722165252944	186.08772767198394	0	0	0
449	1	1	89.34711461378834	-3.6488852970318773	186.4215345312177	0	0	0
450	1	1	90.25881986494944	-3.479556617231228	186.79586237309195	0	0	0
451	1	1	91.17052511611055	-3.719069697737811	187.1296692323257	0	0	0
452	1	1	92.08223036727166	-3.5497410179371616	187.50399707419996	0	0	0
453	1	1	92.99393561843277	-3.7892540984437444	187.83780393343372	0	0	0
454	1	1	93.90564086959388	-3.619925418643095	188.21213177530797	0	0	0
455	1	1	94.81734612075499	-3.859438499149678	188.54593863454173	0	0	0
456	1	1	95.7290513719161	-3.6901098193490287	188.92026647641597	0	0	0
457	1	1	96.64075662307721	-3.9296228998556115	189.25407333564974	0	0	0
458	1	1	97.55246187423832	-3.7602942200549623	189.62840117752398	0	0	0
459	1	1	98.46416712539943	-3.999807300561545	189.96220803675774	0	0	0
460	1	1	99.37587237656054	-3.830478620760896	190.336535878632	0	0	0
461	1	1	100.28757762772165	-4.069991701267479	190.67034273786575	0	0	0
462	1	1	101.19928287888276	-3.9006630214668294	191.04467057974	0	0	0
463	1	1	102.11098813004386	-4.140176101973412	191.37847743897376	0	0	0
464	1	1	103.02269338120497	-3.970847422172763	191.752805280848	0	0	0
465	1	1	103.93439863236608	-4.210360502679346	192.08661214008177	0	0	0
466	1	1	104.84610388352719	-4.041031822878697	192.46093998195602	0	0	0
467	1	1	105.7578091346883	-4.280544903385279	192.79474684118978	0	0	0
468	1	1	106.66951438584941	-4.111216223584631	193.16907468306403	0	0	0
469	1	1	107.58121963701052	-4.350729304091213	193.50288154229779	0	0	0
470	1	1	108.49292488817163	-4.181400624290564	193.87720938417203	0	0	0
471	1	1	109.40463013933274	-4.4209137047971465	194.2110162434058	0	0	0
472	1	1	110.31633539049385	-4.251585024996498	194.58534408528004	0	0	0
473	1	1	111.22804064165496	-4.49109810550308	194.9191509445138	0	0	0
474	1	1	112.13974589281607	-4.321769425702431	195.29347878638805	0	0	0
475	1	1	113.05145114397718	-4.561282506209014	195.6272856456218	0	0	0
476	1	1	113.96315639513828	-4.391953826408365	196.00161348749606	0	0	0
477	1	1	114.8748616462994	-4.631466906914947	196.33542034672982	0	0	0
478	1	1	115.7865668974605	-4.462138227114298	196.70974818860407	0	0	0