#atom_style bond #no stiffness
atom_style angle #with stiffness

boundary        p p p
###
# Pair interactions require lists of neighbours to be calculated
###

#neighbor 0.3 bin
neighbor 4 bin

neigh_modify every 1 delay 1 check yes
atom_modify sort 0 0
### Generate RESTART file, SPECIAL format, not a .txt file ###
### Useful if simulation crashes ###

restart 1000000 linear/restarts/$f.restart
restart 1000000 linear/restarts/bb1000nuc0bl0bn0d30tot1000.restart
#############################



### READ "start" data file ###

read_data linear/$f.dat
read_data linear/bb1000nuc0bl0bn0d30tot1000.dat
Reading data file ...
  orthogonal box = (-1000 -1000 -1000) to (1000 1000 1000)
  1 by 1 by 2 MPI processor grid
  reading atoms ...
  1000 atoms
  scanning bonds ...
  1 = max bonds/atom
  scanning angles ...
  1 = max angles/atom
  reading bonds ...
  999 bonds
  reading angles ...
  998 angles
Finding 1-2 1-3 1-4 neighbors ...
  special bond factors lj:    0        0        0       
  special bond factors coul:  0        0        0       
     2 = max # of 1-2 neighbors
     2 = max # of 1-3 neighbors
     4 = max # of 1-4 neighbors
     6 = max # of special neighbors
  special bonds CPU = 0.001 seconds
  read_data CPU = 0.055 seconds

######################

### READ "REstart" data file ###

######################



###
# Define groups (atom type 1 is group 'all')
###
group all type 1
1000 atoms in group all


###
# Dump configs - "simple dumpings"
###

###
# Dump configs + box coords
###

dump   1   all   custom   1000  linear/trjs/$f.lammpstrj  id  x y z  ix iy iz
dump   1   all   custom   1000  linear/trjs/bb1000nuc0bl0bn0d30tot1000.lammpstrj  id  x y z  ix iy iz
dump_modify   1   format line "%d %.5f %.5f %.5f %d %d %d"

########################################################################


###################################################################
# Stiffness term
#
# E = K * (1+cos(theta)), K>0
#
angle_style   cosine
#change this coefficient to change stiffness (e.g. 1,5,10)
angle_coeff   1 1.0
###################################################################

###################################################################
# Pair interaction between non-bonded atoms
#
#  Lennard-Jones 12-6 potential with cutoff:
#  potential E=4epsilon[ (sigma/r)^12 - (sigma/r)^6]  for r<r_cut
#
#  1.12246 = 2^(1/6) is the minimum of the potential


pair_style      lj/cut 1.12246152962189
#pair_style      lj/cut 3

#
#  pair_modify shift yes adds a constant to the potential such

#  that E(r_cut)=0. Forces remains unchanged.
#

pair_modify     shift yes

#
#  pair_coeff for lj/cut, specify 4:
#    * atom type interacting with
#    * atom type
#    * epsilon (energy units)
#    * sigma (distance units)
#

pair_coeff      1 1 1.0 1.0
###################################################################

###################################################################
# Pair interaction between non-bonded atoms
#
#  soft potential, for PUSHING apart overlapping atoms
#  potential E=A*(1 + cos(pi*r/r_c))
#
#  1.12246 = 2^(1/6) is the cut-off r_c

#pair_style     soft 1.12246152962189

#
#  pair_coeff for soft, specify 3:
#    * atom type interacting with
#    * atom type
#    * A
#
#

#pair_coeff      1 1 100.0
###################################################################

###################################################################
# Pair interaction between bonded atoms
#
# Fene potential + Lennard Jones 12-6:

#
#  E= - 0.5 K R0^2 ln[ 1- (r/R0)^2]
#     + 4epsilon[ (sigma/r)^12 - (sigma/r)^6] + epsilon
#

bond_style   fene


#
# For style fene, specify:
#   * bond type
#   * K (energy/distance^2)
#   * R0 (distance)
#   * epsilon (energy)  (LJ component)
#   * sigma (distance)  (LJ component)
#


special_bonds fene #<=== I M P O R T A N T (new command)
Finding 1-2 1-3 1-4 neighbors ...
  special bond factors lj:    0        1        1       
  special bond factors coul:  0        1        1       
     2 = max # of 1-2 neighbors
     6 = max # of special neighbors
  special bonds CPU = 0.000 seconds

bond_coeff   1   30   2   1.0   1.0


###################################################

###################################################################
# Pair interaction between bonded atoms
#
# Harmonic potential:
#
#  E= K * (R-R0)^2
#

#bond_style   harmonic

#
# For style harmonic, specify:
#   * bond type
#   * K (energy/distance^2)
#   * R0 (distance)
#

#bond_coeff   1   60.0   1.0
#bond_coeff   2   harmonic 0.1   1.0

###################################################
compute 1 all gyration
variable rog equal c_1
#compute 2 all coord/atom cutoff 1.1

#dump 2 all custom 10000 contact_number.dump id c_2


###
# Set up fixes
###
thermo_style   custom   step  temp enthalpy c_1
fix 1 all nve   ###NVE ensemble

fix 2 all   langevin   1.0 1.0 1.0  100103   ###Langevin integrator Tstart Tstop 1/friction rndseed


##### Sample thermodynamic info  (temperature, energy, pressure, etc.) #####
thermo 1000









############################################################################

###
# set timestep of integrator

timestep 0.01

###
# run integration for a number of steps
###
#run 0
#variable r equal c_1
#if "$r < 63.1" then "quit 1"

# lj potential minimum, cause molecule to explore
run 100000
Generated 0 of 0 mixed pair_coeff terms from geometric mixing rule
Last active /omp style is angle_style cosine/omp
Neighbor list info ...
  update: every = 1 steps, delay = 1 steps, check = yes
  max neighbors/atom: 2000, page size: 100000
  master list distance cutoff = 5.1224615
  ghost atom cutoff = 5.1224615
  binsize = 2.5612308, bins = 781 781 781
  1 neighbor lists, perpetual/occasional/extra = 1 0 0
  (1) pair lj/cut/omp, perpetual
      attributes: half, newton on, omp
      pair build: half/bin/newton/omp
      stencil: half/bin/3d
      bin: standard
WARNING: Communication cutoff 5.12246152962189 is shorter than a bond length based estimate of 5.455. This may lead to errors. (src/comm.cpp:723)
Per MPI rank memory allocation (min/avg/max) = 939.7 | 940.3 | 940.9 Mbytes
   Step          Temp         Enthalpy         c_1      
         0   0              13.413297      250.00023    
      1000   0.98187298     18.833404      249.76935    
      2000   0.98336123     18.771837      249.42639    
      3000   1.0428209      18.622735      249.34148    
      4000   1.0040344      18.353325      249.17961    
      5000   1.0410057      18.727594      249.1297     
      6000   0.9397148      18.560508      248.80789    
      7000   1.0431902      19.210948      248.60118    
      8000   1.0037907      18.882608      248.51637    
      9000   1.0084226      19.065187      248.50144    
     10000   1.0026807      18.682112      248.32462    
     11000   1.0296207      18.635467      248.41761    
     12000   1.0373015      18.922908      248.18848    
     13000   0.97190516     19.357812      247.95535    
     14000   1.0074814      19.020254      247.70572    
     15000   1.0128891      18.971707      247.45271    
     16000   1.0313003      18.952511      247.29605    
     17000   0.98614011     19.285001      247.15304    
     18000   0.9800624      19.153237      246.77302    
     19000   1.0744605      19.119022      246.50235    
     20000   0.99106966     18.988221      246.35122    
     21000   1.007595       18.444721      246.32462    
     22000   1.0345176      18.979392      246.37239    
     23000   0.99961791     19.418783      246.23756    
     24000   1.0101314      18.959283      246.04478    
     25000   1.0285338      19.152832      245.84158    
     26000   1.0166281      18.828066      245.56795    
     27000   0.98088069     18.729811      245.40556    
     28000   0.99567087     19.39372       245.28833    
     29000   1.039013       19.266038      245.07196    
     30000   1.0038555      18.920414      244.88594    
     31000   0.98484152     19.158791      244.71596    
     32000   1.0159081      19.358739      244.67053    
     33000   1.0155317      19.599821      244.71337    
     34000   1.0079641      18.892176      244.79371    
     35000   1.0195411      19.047853      244.89992    
     36000   1.0256556      19.049762      244.95361    
     37000   0.98512541     18.894246      244.90588    
     38000   1.0139643      19.445856      244.76074    
     39000   0.97177599     18.717026      244.88468    
     40000   1.0265601      18.754612      244.93277    
     41000   1.0100242      19.341563      244.71074    
     42000   0.99369805     19.537687      244.5176     
     43000   0.97282918     18.966307      244.39461    
     44000   0.9607333      18.844898      244.44312    
     45000   1.0171826      19.246036      244.14929    
     46000   1.0137218      18.921574      243.99292    
     47000   1.0170476      19.20105       243.74482    
     48000   1.0451933      19.083597      243.62367    
     49000   1.0097693      18.941536      243.44216    
     50000   1.0238046      19.005521      243.19479    
     51000   1.0266184      19.518174      243.192      
     52000   0.99339955     19.465143      242.78751    
     53000   0.9623139      19.384593      242.68718    
     54000   0.96098568     19.694255      242.84252    
     55000   0.98750116     19.282524      242.59859    
     56000   1.0478164      19.24098       242.48128    
     57000   0.9967846      19.162437      242.03409    
     58000   0.97751464     19.133208      241.99848    
     59000   0.98293349     18.994907      241.99371    
     60000   0.9963494      19.591655      241.9643     
     61000   0.98090717     18.893277      241.81746    
     62000   0.98670281     19.198136      241.68498    
     63000   0.97910436     19.186188      241.42406    
     64000   1.0121277      19.45833       241.17927    
     65000   1.0017486      19.569154      241.17418    
     66000   0.9866705      18.980608      241.07562    
     67000   0.99514552     19.049842      240.99456    
     68000   1.0404351      18.991788      240.80679    
     69000   1.0541122      19.72081       240.67792    
     70000   0.99675903     19.114866      240.36329    
     71000   1.0045143      19.499517      239.90735    
     72000   0.9936224      19.384587      239.6579     
     73000   1.0175506      19.000404      239.36807    
     74000   0.99489272     19.596518      239.26862    
     75000   1.0172404      19.009332      238.89821    
     76000   1.0070708      19.093341      238.88554    
     77000   1.0060508      20.02739       239.085      
     78000   1.0090495      19.06903       239.10614    
     79000   0.96959285     19.314153      238.97504    
     80000   0.95558312     18.995287      238.99015    
     81000   0.9824732      19.240296      238.71821    
     82000   1.0216459      19.117374      238.45478    
     83000   0.99065898     19.411399      238.3601     
     84000   0.99553102     18.917267      238.38935    
     85000   1.0206945      19.729366      238.09449    
     86000   1.0326035      19.854135      238.05288    
     87000   0.99576141     18.889748      238.17735    
     88000   0.95593337     18.826192      237.84091    
     89000   1.0204205      19.798337      237.3987     
     90000   0.99628492     19.180009      237.27856    
     91000   0.97965539     19.405282      237.2587     
     92000   0.97289498     19.325156      237.2339     
     93000   0.96958985     19.262872      237.02559    
     94000   1.0130958      19.678358      236.84035    
     95000   1.0057751      19.405775      236.53224    
     96000   0.98393535     19.419532      236.33407    
     97000   0.99377496     19.712396      236.17454    
     98000   1.0339601      19.389513      235.93838    
     99000   1.00531        19.546711      235.66046    
    100000   1.0399579      19.373193      235.4803     
Loop time of 174.925 on 4 procs for 100000 steps with 1000 atoms

Performance: 493924.587 tau/day, 571.672 timesteps/s
105.1% CPU use with 2 MPI tasks x 2 OpenMP threads

MPI task timing breakdown:
Section |  min time  |  avg time  |  max time  |%varavg| %total
---------------------------------------------------------------
Pair    | 0.61671    | 0.6366     | 0.65648    |   2.5 |  0.36
Bond    | 1.2321     | 1.3717     | 1.5114     |  11.9 |  0.78
Neigh   | 167.48     | 167.48     | 167.48     |   0.0 | 95.75
Comm    | 1.8025     | 1.9061     | 2.0096     |   7.5 |  1.09
Output  | 0.21799    | 0.22097    | 0.22394    |   0.6 |  0.13
Modify  | 2.2636     | 2.544      | 2.8244     |  17.6 |  1.45
Other   |            | 0.7631     |            |       |  0.44

Nlocal:            500 ave         502 max         498 min
Histogram: 1 0 0 0 0 0 0 0 0 1
Nghost:          454.5 ave         456 max         453 min
Histogram: 1 0 0 0 0 0 0 0 0 1
Neighs:         2377.5 ave        2414 max        2341 min
Histogram: 1 0 0 0 0 0 0 0 0 1

Total # of neighbors = 4755
Ave neighs/atom = 4.755
Ave special neighs/atom = 1.998
Neighbor list builds = 1055
Dangerous builds = 0

# Replace lj potential, now collapse
pair_style      lj/cut 3

# Cutoff simul when gyration under 5
# Variable created with equal requires v_ + 'name'
fix 3 all halt 1000 v_rog < 5

run 5000000
Generated 0 of 0 mixed pair_coeff terms from geometric mixing rule
Last active /omp style is angle_style cosine/omp
Per MPI rank memory allocation (min/avg/max) = 939.7 | 940.3 | 940.9 Mbytes
   Step          Temp         Enthalpy         c_1      
    100000   1.0399579      18.951032      235.4803     
    101000   0.98340531     19.055776      235.39005    
    102000   0.97072731     18.928278      235.23648    
    103000   0.96354446     18.392364      235.1093     
    104000   1.032081       19.156666      234.90069    
    105000   1.0020475      19.409825      234.79665    
    106000   1.0152031      19.458171      234.64359    
    107000   1.0091262      19.365372      234.40532    
    108000   0.96435547     18.970444      234.45448    
    109000   0.99294759     18.781251      234.23687    
    110000   1.0186181      18.785114      234.19115    
    111000   0.98545142     19.230236      234.0537     
    112000   0.97359733     19.148146      233.93096    
    113000   1.0287359      18.752242      233.59088    
    114000   1.0127532      19.555945      233.47465    
    115000   1.0389057      18.622163      233.25183    
    116000   0.98785464     19.325407      233.19834    
    117000   0.98492403     19.018943      233.13058    
    118000   1.0212962      18.676927      232.85746    
    119000   1.0251083      19.117873      232.76485    
    120000   0.99740003     18.735021      232.68055    
    121000   1.0045211      19.200981      232.38126    
    122000   1.0197154      19.10735       232.078      
    123000   0.92871642     18.91414       232.03215    
    124000   0.99448832     18.749708      231.90722    
    125000   1.0234125      18.928151      231.71833    
    126000   0.96566189     18.92531       231.37033    
    127000   1.0228675      18.851979      231.13393    
    128000   1.0523675      19.668331      230.95773    
    129000   1.0349812      19.111889      230.77355    
    130000   1.0043508      19.004813      230.55029    
    131000   0.99315367     19.149346      230.34077    
    132000   0.98068484     18.835785      230.15548    
    133000   0.9680559      19.219324      230.04969    
    134000   1.0109757      18.533562      230.01523    
    135000   1.0296661      19.176271      229.94077    
    136000   0.95802        18.906817      229.81075    
    137000   0.97716211     18.752726      229.53603    
    138000   0.99904959     19.019331      229.5606     
    139000   1.0145299      18.717252      229.41118    
    140000   0.98588787     18.758507      229.18568    
    141000   0.99846533     18.998126      229.05765    
    142000   0.98631675     19.48416       228.90718    
    143000   1.0104208      19.65226       228.81592    
    144000   0.99634118     19.141945      228.5039     
    145000   1.0051342      19.096567      228.42646    
    146000   1.0175033      19.00946       228.126      
    147000   1.0028918      19.625836      227.88564    
    148000   1.0358564      19.28455       227.75366    
    149000   1.0265507      18.930421      227.64257    
    150000   1.0162369      18.648268      227.6508     
    151000   0.98246109     18.876886      227.48879    
    152000   0.99489958     19.550419      227.43647    
    153000   1.0126797      19.174528      227.22568    
    154000   1.0143431      19.24918       227.02922    
    155000   0.99303232     19.021172      226.69504    
    156000   0.98830825     19.045543      226.41554    
    157000   1.0313255      18.691764      226.27297    
    158000   1.0325057      19.389606      226.22991    
    159000   1.0080394      18.610824      226.07386    
    160000   1.0341213      19.138897      225.94823    
    161000   0.95571935     18.694521      225.81011    
    162000   0.94928035     18.568764      225.59125    
    163000   0.98055222     19.472439      225.4676     
    164000   1.0162303      19.264361      225.1222     
    165000   0.99547692     18.880498      224.97727    
    166000   0.96983667     19.008327      224.94166    
    167000   1.0235913      19.127692      224.78021    
    168000   0.98684404     18.782086      224.72608    
    169000   1.0130052      19.044493      224.45926    
    170000   1.0137402      19.327405      224.40236    
    171000   1.010801       19.026372      224.21567    
    172000   0.95079827     18.947365      224.03907    
    173000   1.0012888      18.867318      223.86266    
    174000   1.0097009      19.31683       223.58172    
    175000   1.0201797      18.253485      223.4745     
    176000   0.96644337     18.963071      223.4496     
    177000   1.0097209      18.671182      223.31875    
    178000   1.0263695      19.126581      223.17965    
    179000   0.98913198     19.116879      223.25674    
    180000   1.0151743      18.642494      223.2418     
    181000   1.0321689      19.252008      223.03315    
    182000   1.0310167      19.332031      222.97699    
    183000   1.0151329      19.549241      222.87676    
    184000   1.0295381      19.378623      223.08497    
    185000   1.0360312      19.033854      222.97465    
    186000   0.97895145     18.702135      222.88318    
    187000   0.99380252     18.634358      222.92173    
    188000   0.98266965     18.278374      222.82982    
    189000   1.0107461      19.025705      222.96023    
    190000   1.0662516      19.09755       222.98096    
    191000   1.028918       19.116723      222.95347    
    192000   1.0344466      19.414316      222.82973    
    193000   1.0552272      18.994918      222.66326    
    194000   0.997845       19.12064       222.56025    
    195000   1.0218098      18.963732      222.5495     
    196000   0.99853449     18.955773      222.28414    
    197000   0.95819592     18.45516       222.24309    
    198000   0.99321354     18.440687      222.11917    
    199000   0.9920783      18.956467      222.17307    
    200000   0.99916902     18.720027      222.10243    
    201000   1.0047969      19.226669      221.87714    
    202000   0.98563441     19.195285      221.95055    
    203000   1.0116542      18.708696      221.67074    
    204000   0.98021338     18.972594      221.57625    
    205000   0.97066619     18.928496      221.40411    
    206000   0.9748689      18.785842      221.21299    
    207000   1.0096167      19.222252      221.11649    
    208000   0.96904072     18.896335      220.99844    
    209000   0.96460121     18.836854      220.72753    
    210000   1.0300151      19.479519      220.67502    
    211000   1.0166434      18.952589      220.47563    
    212000   0.99394573     18.687115      220.35952    
    213000   0.99561554     19.274121      220.24216    
    214000   0.99392741     18.802098      219.94918    
    215000   0.96763499     19.108954      219.8915     
    216000   1.023799       19.09309       219.70833    
    217000   0.98778327     18.846077      219.57642    
    218000   0.98401298     19.538168      219.44727    
    219000   0.98420199     18.524742      219.34347    
    220000   0.9930378      18.913266      219.12792    
    221000   1.0514437      18.684139      218.88789    
    222000   1.0367586      18.702156      219.01946    
    223000   0.98284397     18.912634      218.85155    
    224000   0.99559588     19.088536      218.81527    
    225000   1.0465975      18.87451       218.71748    
    226000   0.97224989     19.404757      218.7743     
    227000   0.98426974     19.124708      218.61388    
    228000   1.0196086      18.799112      218.63643    
    229000   1.0375385      18.891147      218.64455    
    230000   0.99943174     19.047631      218.54966    
    231000   0.98596333     18.783004      218.61834    
    232000   0.97177526     18.464485      218.39835    
    233000   1.0160176      18.915658      218.28333    
    234000   1.0168629      18.828948      218.41682    
    235000   0.97336811     19.23918       218.34963    
    236000   1.0333631      19.250033      218.30292    
    237000   1.0088075      18.754155      218.1769     
    238000   1.0188671      18.964648      217.94845    
    239000   0.98469266     19.301272      217.75655    
    240000   1.0036612      18.900693      217.51345    
    241000   1.0070064      18.580095      217.31303    
    242000   1.0019446      19.632771      217.34187    
    243000   0.97160561     18.964004      217.29104    
    244000   1.0101466      19.094805      217.14025    
    245000   1.0200093      19.468306      216.86417    
    246000   1.0104703      19.111735      216.76597    
    247000   1.0081834      19.287991      216.84006    
    248000   1.0012144      18.047074      216.75227    
    249000   1.0063853      18.951263      216.61755    
    250000   0.99527345     18.679375      216.51604    
    251000   0.99018712     18.945842      216.39964    
    252000   0.98333026     18.934513      216.2277     
    253000   1.0010997      19.219628      216.13478    
    254000   1.0158964      19.242591      215.81586    
    255000   1.0283784      18.903366      215.82584    
    256000   0.96285763     19.407838      215.40146    
    257000   0.94278645     18.96935       215.30602    
    258000   0.97655241     18.577895      215.27698    
    259000   1.0259953      18.965466      215.19625    
    260000   0.96641661     18.695236      214.96846    
    261000   0.96177847     18.745816      214.85122    
    262000   1.0287201      18.646471      214.74651    
    263000   1.0240085      19.248106      214.67979    
    264000   1.0060154      19.214797      214.63026    
    265000   1.040308       18.719999      214.4045     
    266000   1.0141716      19.332071      214.20803    
    267000   1.0091924      19.931088      213.88261    
    268000   1.01088        18.894554      214.1141     
    269000   1.0095102      18.854722      213.90659    
    270000   0.9817367      18.860814      213.76123    
    271000   0.96267128     19.114758      213.60412    
    272000   0.97934299     19.332937      213.41646    
    273000   0.99217919     19.196816      213.35437    
    274000   1.0550194      18.843913      213.66862    
    275000   0.99788402     19.446693      213.39864    
    276000   0.96357105     18.390187      213.27161    
    277000   1.0216402      18.968255      213.29094    
    278000   0.99079421     18.460819      213.31908    
    279000   0.97972067     18.880352      213.04721    
    280000   0.96486426     18.83309       212.73441    
    281000   1.0283523      18.59221       212.71899    
    282000   0.97186682     18.829136      212.65094    
    283000   0.99855        18.810648      212.44807    
    284000   1.0324235      19.227364      212.36822    
    285000   1.0025399      18.878252      212.22651    
    286000   0.98292167     19.003087      212.02935    
    287000   1.0199328      19.187745      211.77259    
    288000   1.0057675      18.996438      211.64294    
    289000   0.98357144     18.940911      211.52621    
    290000   0.95748405     18.849876      211.43674    
    291000   1.0347528      19.261869      211.2515     
    292000   1.0151941      19.24539       211.24766    
    293000   1.0581222      19.304936      211.1811     
    294000   1.0245575      19.339257      211.30304    
    295000   1.0213269      19.037479      211.22734    
    296000   1.0011197      19.335588      210.87371    
    297000   0.98968485     18.748684      210.858      
    298000   1.0184951      19.081018      210.80756    
    299000   1.0294693      19.777185      210.60568    
    300000   0.9946491      19.504742      210.36823    
    301000   1.0008528      18.947669      210.29229    
    302000   0.99699218     19.186599      210.33037    
    303000   1.0130175      18.648043      210.40643    
    304000   1.0265833      19.407046      210.30808    
    305000   0.9624664      18.952741      210.21311    
    306000   0.98863227     19.309138      210.2224     
    307000   0.98113595     18.941068      210.21405    
    308000   0.97546219     19.390973      210.10028    
    309000   1.0316793      19.141551      209.97041    
    310000   0.95619597     18.772726      210.04648    
    311000   0.97493294     19.036231      210.04833    
    312000   0.98048378     19.229953      209.93126    
    313000   1.0322585      19.082933      209.87682    
    314000   0.95609284     18.728412      209.50105    
    315000   1.0027304      18.834174      209.03296    
    316000   1.0050331      19.240015      209.26161    
    317000   0.97413665     18.574076      209.11678    
    318000   1.010617       19.197672      209.07181    
    319000   0.95180653     19.268597      208.95117    
    320000   0.98436575     19.053967      208.77467    
    321000   1.0163402      18.981255      208.75585    
    322000   1.0414882      18.750326      208.58514    
    323000   0.94046009     18.895033      208.6265     
    324000   1.0275439      19.248734      208.66424    
    325000   0.96863087     18.861889      208.79882    
    326000   0.99073001     19.119719      208.5811     
    327000   0.97428777     19.047644      208.58637    
    328000   0.9847679      18.738424      208.43253    
    329000   0.99939458     19.120143      208.2911     
    330000   0.99451215     19.105567      208.00112    
    331000   1.0178546      18.786912      207.88804    
    332000   1.0296536      19.244615      207.74812    
    333000   0.98582766     18.443515      207.5079     
    334000   0.96583648     18.830981      207.32405    
    335000   1.0208031      19.026818      207.20355    
    336000   1.0060192      19.576029      206.969      
    337000   0.95413832     18.99762       206.92309    
    338000   0.99989639     18.848125      206.60152    
    339000   1.014909       19.000621      206.50425    
    340000   1.01495        19.255726      206.52307    
    341000   1.0190031      19.214743      206.46619    
    342000   0.97547073     19.183645      206.56174    
    343000   0.99947929     19.020485      206.72148    
    344000   1.0162332      19.62794       206.66389    
    345000   0.96929229     19.265824      206.56624    
    346000   0.98084648     18.844213      206.52672    
    347000   1.0047637      18.801803      206.37267    
    348000   1.0130884      18.740678      206.32841    
    349000   0.94849231     19.147255      206.18539    
    350000   0.99969742     19.176392      206.0722     
    351000   0.97755322     19.25296       206.04345    
    352000   0.98182337     18.97007       206.29165    
    353000   1.0046101      18.482369      206.04695    
    354000   1.0497198      18.991697      206.09884    
    355000   1.0383518      19.382746      206.09533    
    356000   0.95836958     18.809582      206.01767    
    357000   0.97116624     18.875907      206.19512    
    358000   1.0145972      18.897897      206.2029     
    359000   0.98428043     18.723399      206.34435    
    360000   0.98139929     19.291003      206.25807    
    361000   1.0004353      18.978521      206.18856    
    362000   1.0369201      19.07026       205.81063    
    363000   1.0076417      18.990219      205.60635    
    364000   1.0307887      18.985727      205.38486    
    365000   1.0182027      19.135649      205.18507    
    366000   0.97487645     19.387057      205.03802    
    367000   1.0125939      18.790851      204.94138    
    368000   1.0323396      19.191596      204.82969    
    369000   1.0065687      18.809561      204.97658    
    370000   0.97793426     18.862499      204.84877    
    371000   1.0323885      18.568431      204.80391    
    372000   0.9779762      18.786042      204.84194    
    373000   1.0346039      19.104441      204.70682    
    374000   0.99398788     19.297224      204.13834    
    375000   0.99815728     18.96709       204.07284    
    376000   0.99760283     18.961376      204.06527    
    377000   1.033212       18.906405      203.92018    
    378000   1.0115889      18.851093      203.84402    
    379000   0.99568231     18.668219      203.59742    
    380000   1.0342887      18.588622      203.3028     
    381000   1.0021087      18.961954      203.23923    
    382000   0.97469581     18.610437      202.99701    
    383000   1.0078485      18.766392      202.7762     
    384000   1.003209       19.12375       202.47483    
    385000   1.0364166      18.606645      202.56818    
    386000   1.0000412      18.561738      202.64027    
    387000   1.0036959      18.958645      202.57686    
    388000   0.98418202     19.094994      202.32875    
    389000   1.0298498      18.959006      202.26923    
    390000   1.0255436      19.219377      202.13881    
    391000   1.0392227      19.28625       202.21362    
    392000   0.92972352     18.902178      202.18867    
    393000   1.0269664      19.16243       201.94757    
    394000   0.9715724      18.821841      202.10877    
    395000   0.99550174     18.745235      201.83975    
    396000   0.98265019     18.735099      201.73645    
    397000   1.0410783      19.253209      201.74856    
    398000   1.0060936      18.928826      201.66341    
    399000   1.0208266      19.124971      201.60113    
    400000   0.99426673     18.955847      201.7317     
    401000   0.99263437     18.960202      201.66046    
    402000   1.0222801      19.210431      201.59612    
    403000   0.9673178      18.750875      201.55098    
    404000   0.95982424     18.901366      201.27702    
    405000   0.98839527     19.243727      200.7521     
    406000   0.99669844     18.648785      200.36529    
    407000   1.0108597      19.419641      200.13862    
    408000   1.0007112      19.259381      200.02795    
    409000   0.96637815     19.038849      199.89487    
    410000   0.9827871      18.757641      199.88936    
    411000   1.0089344      18.469638      199.73715    
    412000   0.96807555     18.860287      199.66953    
    413000   0.97538739     18.988856      199.63628    
    414000   0.99693312     18.946857      199.41286    
    415000   1.0196564      19.550666      199.12306    
    416000   1.0367202      19.558464      198.831      
    417000   1.0210075      18.489157      198.64378    
    418000   0.96110099     19.356178      198.41614    
    419000   0.97232067     19.415153      198.44811    
    420000   0.99535952     19.082122      198.37162    
    421000   1.0295049      19.035296      198.55046    
    422000   0.98164694     19.030769      198.56613    
    423000   0.98661342     18.868005      198.46047    
    424000   0.98613848     18.823557      198.48394    
    425000   0.97062477     18.688302      198.56463    
    426000   0.98205023     19.154893      198.42643    
    427000   1.0169943      18.650546      198.49837    
    428000   1.0385474      18.983355      198.54327    
    429000   0.9819741      18.805491      198.66081    
    430000   0.96283333     18.745252      198.50363    
    431000   0.99691426     18.850968      198.50662    
    432000   1.0368709      19.979763      198.34867    
    433000   0.96371249     18.751206      198.35884    
    434000   0.96919335     18.666623      197.90194    
    435000   1.0428361      19.197721      197.75761    
    436000   1.0166305      19.175078      197.54408    
    437000   1.006226       18.207665      197.34206    
    438000   1.0111054      19.044837      197.17939    
    439000   0.95850623     18.924117      197.02606    
    440000   0.98900749     18.884346      196.78732    
    441000   1.00561        18.607056      196.85946    
    442000   1.0258581      18.706789      196.79177    
    443000   1.0263458      18.729085      196.58528    
    444000   1.0160321      18.840847      196.54581    
    445000   1.0187259      18.902505      196.46099    
    446000   1.0453964      19.107755      196.4907     
    447000   1.0402072      18.938423      196.30359    
    448000   0.99134286     18.540636      196.13439    
    449000   1.0006812      18.837403      195.93552    
    450000   0.95837322     18.846641      195.7734     
    451000   1.0149598      18.993484      195.76263    
    452000   1.0378344      18.824602      195.90762    
    453000   0.96717139     19.239919      196.00511    
    454000   1.00072        19.149198      195.88145    
    455000   1.0148449      19.580963      195.86104    
    456000   1.0066412      19.410515      195.80978    
    457000   1.0005456      18.565403      195.64372    
    458000   1.006185       18.76402       195.45182    
    459000   1.0272821      19.187857      195.56357    
    460000   1.015612       19.235646      195.57017    
    461000   0.98994724     18.835631      195.48091    
    462000   1.0213995      18.750008      195.50724    
    463000   0.99634669     18.94263       195.43009    
    464000   0.9955966      18.818816      195.15807    
    465000   0.99019577     19.219593      195.03816    
    466000   0.98754464     19.130022      194.81912    
    467000   0.97183572     19.095838      194.75515    
    468000   0.99223494     18.662713      194.87134    
    469000   0.97089888     18.730222      194.71754    
    470000   1.0096088      18.741888      194.51036    
    471000   0.9840934      18.767532      194.4062     
    472000   0.96443817     18.991339      194.37263    
    473000   1.0111139      18.51937       194.2503     
    474000   1.0241393      19.021939      194.28066    
    475000   0.99715782     18.992481      193.92197    
    476000   0.99992623     18.574977      193.52906    
    477000   0.99863895     18.601695      193.40403    
    478000   0.96968837     18.641621      193.43811    
    479000   1.0262015      19.364801      193.36234    
    480000   1.0505495      18.81001       193.36061    
    481000   0.98503967     18.940409      193.15971    
    482000   1.0597531      19.170803      193.30118    
    483000   0.97719447     19.038711      193.01369    
    484000   1.0549783      18.612718      192.87696    
    485000   0.98591717     19.035971      192.66085    
    486000   0.9902629      19.486931      192.18715    
    487000   0.97827839     18.628218      192.06631    
    488000   1.030671       18.357533      191.75156    
    489000   0.98001015     19.155924      191.4786     
    490000   0.978235       18.564923      191.36418    
    491000   1.0131056      19.117748      191.21201    
    492000   1.0108272      18.762361      191.12772    
    493000   0.98791116     18.827718      190.90899    
    494000   0.94243452     18.814945      190.8385     
    495000   1.0208187      18.776314      190.67027    
    496000   1.0128395      18.971895      190.8476     
    497000   1.0604604      19.235871      190.85822    
    498000   1.027094       18.500555      190.62197    
    499000   0.98410373     18.730443      190.34494    
    500000   0.99565344     19.10778       190.19842    
    501000   1.0474501      19.272612      189.99256    
    502000   1.0538816      19.032536      190.19495    
    503000   0.98247496     18.518626      190.33289    
    504000   1.0084035      18.685866      190.04213    
    505000   1.0089995      19.04724       190.06903    
    506000   1.0216928      19.257153      190.02183    
    507000   1.0179559      18.883194      189.83526    
    508000   0.96974402     18.923477      189.59859    
    509000   1.003966       18.88461       189.42307    
    510000   0.98997952     18.726637      189.31304    
    511000   0.98837428     19.069603      189.1627     
    512000   0.98532094     18.819949      188.93881    
    513000   1.0259174      19.086509      188.87706    
    514000   0.99030505     18.505739      188.86134    
    515000   0.95793584     18.683942      188.77878    
    516000   0.9913147      18.691857      188.73632    
    517000   1.0230022      18.541777      188.83584    
    518000   0.98722795     18.907861      189.00013    
    519000   0.98325946     18.851342      189.05533    
    520000   1.0000775      18.929684      189.01788    
    521000   1.0161922      19.34298       189.01659    
    522000   1.0251456      19.384613      188.95105    
    523000   1.0028853      18.246086      188.69878    
    524000   0.97601923     18.898408      188.62037    
    525000   1.0187386      18.802143      188.68649    
    526000   0.99089957     18.378077      188.61245    
    527000   0.98412305     19.28914       188.72158    
    528000   0.99113731     18.719361      188.69543    
    529000   0.97576951     19.104302      188.58056    
    530000   0.99486736     19.560006      188.55658    
    531000   1.0272797      19.621071      188.53824    
    532000   0.99280577     18.568559      188.33361    
    533000   1.0026583      18.993809      188.15238    
    534000   0.9937255      18.75073       188.19119    
    535000   0.99040578     18.948366      188.32053    
    536000   1.0191809      19.142306      188.30271    
    537000   0.94660656     18.695428      188.23196    
    538000   1.0132618      19.436466      187.85486    
    539000   0.99329127     18.93524       187.64698    
    540000   0.97480684     19.319107      187.6153     
    541000   1.0001023      19.114133      187.50367    
    542000   0.99349093     18.824643      187.34197    
    543000   1.0125087      18.3929        187.34737    
    544000   1.0048828      18.825233      187.21213    
    545000   0.97692346     19.262462      187.088      
    546000   1.0161542      18.694837      187.04901    
    547000   0.99674528     18.618695      186.89606    
    548000   1.0098367      19.105484      186.66059    
    549000   1.021759       18.56401       186.75257    
    550000   1.063751       18.573601      186.65471    
    551000   0.9886601      18.52156       186.71365    
    552000   0.99289151     18.888257      186.69676    
    553000   1.0173353      18.732467      186.54747    
    554000   0.98020788     19.088008      186.46376    
    555000   0.99837064     18.77246       186.44757    
    556000   0.98736582     18.363115      186.04612    
    557000   1.0013055      19.177807      185.84201    
    558000   1.0008169      19.193385      185.79666    
    559000   1.0068935      18.597121      185.84686    
    560000   0.99739384     18.646825      185.72778    
    561000   0.99057024     18.960799      185.83683    
    562000   1.0413681      18.545058      185.70423    
    563000   0.98636924     18.448372      185.46042    
    564000   1.0370057      19.226345      185.48215    
    565000   1.0008304      18.858886      185.39105    
    566000   1.0181957      19.325252      185.19717    
    567000   0.97741223     18.41858       185.4728     
    568000   0.99586958     19.324453      185.46927    
    569000   1.0263703      18.538695      185.2988     
    570000   0.95876922     18.5441        185.08676    
    571000   0.99098223     18.93363       184.97998    
    572000   1.0086655      18.845697      184.77346    
    573000   1.01134        18.331279      184.65552    
    574000   0.9846328      18.89991       184.76063    
    575000   1.0420209      18.662197      184.77571    
    576000   1.0531666      18.861528      184.70255    
    577000   0.97769943     18.43369       184.61633    
    578000   1.0248047      19.013531      184.73053    
    579000   1.0397835      18.991876      184.76377    
    580000   0.99046908     18.849411      184.63865    
    581000   1.0448147      18.789696      184.48465    
    582000   1.0070127      18.913218      184.49963    
    583000   1.0171756      18.796841      184.2679     
    584000   1.0400376      18.039313      184.1575     
    585000   0.98378822     19.069506      184.10578    
    586000   1.0131119      18.622427      184.00237    
    587000   1.0047727      18.775537      183.8949     
    588000   0.98851804     19.164521      183.84103    
    589000   1.0337345      18.671866      183.64837    
    590000   1.0072052      18.957502      183.49885    
    591000   1.0171267      18.916505      183.44242    
    592000   1.0186635      18.781915      183.52039    
    593000   0.99011229     18.912356      183.53527    
    594000   1.0175428      18.670556      183.27944    
    595000   1.0337467      18.731416      183.03981    
    596000   1.0010459      18.78876       182.88014    
    597000   1.0547455      18.687422      182.61914    
    598000   1.0858547      19.416269      182.50516    
    599000   1.0169196      18.718834      182.63147    
    600000   1.0169087      18.610933      182.69358    
    601000   0.97335233     18.836117      182.71296    
    602000   1.0098826      18.441954      182.67967    
    603000   1.0134311      19.727938      182.55833    
    604000   1.0051817      18.999524      182.35283    
    605000   1.0324755      18.78979       182.40928    
    606000   1.0281002      19.434846      182.40314    
    607000   0.97128608     18.340795      182.52162    
    608000   1.0082898      18.983689      182.64064    
    609000   0.98903367     18.614997      182.36546    
    610000   0.98603846     18.469796      182.1772     
    611000   0.98915005     18.535254      181.95605    
    612000   1.0019466      19.08137       181.79749    
    613000   0.9650723      18.946385      181.71478    
    614000   0.98556397     19.476046      181.36643    
    615000   1.0456826      18.61002       181.03919    
    616000   1.0053648      19.265118      180.79049    
    617000   0.98880915     18.701756      180.80017    
    618000   1.0387278      18.771314      180.83335    
    619000   1.0048032      18.573422      180.91428    
    620000   0.95841449     18.548388      180.88514    
    621000   0.9930301      19.228308      180.7689     
    622000   0.96914621     18.718595      180.78055    
    623000   1.0123187      18.941066      180.64435    
    624000   1.0105638      18.752042      180.50349    
    625000   1.0124455      18.675821      180.34732    
    626000   1.0237631      18.831068      180.50782    
    627000   1.0172368      18.876508      180.35972    
    628000   1.0176005      18.282142      180.33771    
    629000   1.005136       18.371014      180.12296    
    630000   0.99087856     18.744281      180.19876    
    631000   0.94343423     18.362821      180.19317    
    632000   0.94980129     18.786946      180.17682    
    633000   0.99162219     18.758822      180.06816    
    634000   1.0061264      18.652915      179.96878    
    635000   0.96006279     18.392818      179.93759    
    636000   0.98880754     18.71087       179.77358    
    637000   0.94760016     18.495254      179.74209    
    638000   0.98522153     19.163944      179.63164    
    639000   0.98042555     18.781436      179.6659     
    640000   1.0072985      19.071881      179.54575    
    641000   1.0005889      18.954331      179.53626    
    642000   1.0154581      18.423036      179.06218    
    643000   1.0088904      18.940293      178.99106    
    644000   0.99285046     18.393633      178.89841    
    645000   1.0172408      18.770212      179.01184    
    646000   0.97173517     18.166416      178.84956    
    647000   1.0507833      19.19953       178.89647    
    648000   1.04068        18.545596      178.88065    
    649000   1.0286968      19.004097      178.95505    
    650000   1.0024746      18.331029      179.09231    
    651000   0.96100089     18.581591      179.12776    
    652000   0.98903956     18.256887      179.12074    
    653000   0.96002146     18.324997      179.13582    
    654000   1.0429153      19.662269      179.19713    
    655000   0.96939095     18.607511      179.0153     
    656000   0.95566179     18.39871       178.7779     
    657000   0.99288281     18.799128      178.8971     
    658000   1.0344438      18.85834       178.91947    
    659000   0.97737665     18.948773      178.82995    
    660000   1.0070797      19.238709      178.63193    
    661000   1.0179438      19.388432      178.75601    
    662000   0.98802478     19.054078      178.84015    
    663000   0.95016092     18.563139      178.82562    
    664000   1.0055335      19.211916      178.613      
    665000   0.97808413     18.147447      178.43545    
    666000   1.0647234      18.483113      178.31771    
    667000   0.98550751     18.414447      178.29538    
    668000   0.98235131     18.407934      178.28193    
    669000   1.0311144      19.314352      178.21868    
    670000   1.0091818      18.790894      178.17818    
    671000   0.98654652     18.339154      178.01761    
    672000   1.0152026      18.550994      177.86614    
    673000   0.94280663     18.075099      177.92311    
    674000   1.0146396      18.819294      177.80322    
    675000   0.96404386     18.744439      177.75375    
    676000   1.0217298      18.862664      177.83323    
    677000   0.98372473     19.139791      177.6925     
    678000   0.9730658      18.509274      177.76761    
    679000   1.022663       18.953265      177.8113     
    680000   1.0022543      18.553141      177.79448    
    681000   1.0165797      18.589768      177.66571    
    682000   1.0017028      18.735326      177.50115    
    683000   1.0143327      18.99263       177.52017    
    684000   0.99267372     18.564765      177.34655    
    685000   1.0414174      18.908983      177.29174    
    686000   1.0172474      18.644849      176.99772    
    687000   1.0279776      19.147777      176.96728    
    688000   1.0254863      18.57246       176.96023    
    689000   0.99957791     18.237674      176.88868    
    690000   0.98503972     18.718175      176.76925    
    691000   1.0120349      18.585584      176.65646    
    692000   1.0095508      18.592327      176.48968    
    693000   0.98930658     18.505856      176.31118    
    694000   1.0574636      19.03381       176.28569    
    695000   0.98589834     18.526905      176.15933    
    696000   0.99303205     18.907275      175.78982    
    697000   1.0044384      19.078841      175.60787    
    698000   1.0390204      18.834959      175.54422    
    699000   0.99252169     18.777055      175.48869    
    700000   1.006328       18.49902       175.42775    
    701000   1.0038739      18.793289      175.09984    
    702000   0.99865133     18.362358      174.82853    
    703000   0.9909259      19.359653      174.84687    
    704000   1.0064983      18.66727       175.07089    
    705000   0.94536009     18.474275      175.18292    
    706000   1.0224694      18.357074      175.01444    
    707000   1.0137879      18.831169      175.03275    
    708000   1.0304876      19.011805      175.07415    
    709000   0.99417019     18.837443      175.17509    
    710000   1.0020681      18.762261      175.0391     
    711000   1.030492       18.776408      174.93464    
    712000   0.97298361     18.518514      175.02039    
    713000   1.0010978      18.803673      174.80938    
    714000   1.0178701      18.836319      174.66681    
    715000   1.0310137      18.965908      174.23763    
    716000   0.97921963     18.278818      173.96007    
    717000   0.99424202     18.338254      174.11766    
    718000   1.0126996      18.719752      173.98011    
    719000   1.018581       18.796511      174.05137    
    720000   1.0464381      18.881028      174.00327    
    721000   0.94062805     18.184829      173.86856    
    722000   0.99553619     18.527576      173.93746    
    723000   0.99827339     18.91884       173.99086    
    724000   1.0059992      18.573549      173.96428    
    725000   0.99867202     18.102902      173.91491    
    726000   1.0283976      18.729411      173.55979    
    727000   0.98262371     18.566033      173.58691    
    728000   1.013548       18.978819      173.41794    
    729000   1.0154321      18.739402      173.33105    
    730000   1.0017184      18.628219      173.21969    
    731000   0.97255239     18.857565      173.0015     
    732000   0.97637251     18.4485        172.93798    
    733000   1.0512138      18.824402      172.84344    
    734000   0.95890086     18.81965       172.7027     
    735000   0.97917644     18.86664       172.49853    
    736000   0.96801776     18.372364      172.46704    
    737000   1.0331097      19.590322      172.32531    
    738000   0.99374631     18.591939      172.21873    
    739000   0.97044068     18.628517      172.11549    
    740000   1.0117952      18.776018      171.94421    
    741000   0.96906757     18.388553      171.97787    
    742000   1.0396013      18.805103      171.74934    
    743000   0.99860681     18.864313      171.51111    
    744000   1.0111201      19.109161      171.38674    
    745000   1.0254438      18.041898      171.3825     
    746000   1.0157284      18.94335       171.46786    
    747000   1.0157188      19.164483      171.35971    
    748000   1.0095877      18.783677      171.18361    
    749000   0.98380215     19.006672      171.10864    
    750000   0.96765995     18.475683      171.29061    
    751000   1.0191363      18.869599      171.19661    
    752000   1.015565       18.710165      171.08563    
    753000   1.0253943      18.695961      170.98718    
    754000   0.95685332     18.141627      170.65546    
    755000   1.0444996      19.048172      170.76478    
    756000   0.98494641     18.288247      170.52465    
    757000   0.98466062     18.927149      170.42855    
    758000   1.0102756      18.230695      170.305      
    759000   1.0189261      19.040193      170.15942    
    760000   1.0290631      18.88757       170.09553    
    761000   0.95612493     18.51817       170.09185    
    762000   1.0060874      19.061931      170.10951    
    763000   1.0306315      18.350439      170.32205    
    764000   1.0168299      18.862027      170.27323    
    765000   1.0047839      18.67859       170.13321    
    766000   0.97290315     17.984631      170.15353    
    767000   0.97606727     18.64062       170.15288    
    768000   1.0051184      18.910148      170.13788    
    769000   0.94943136     17.979573      170.2453     
    770000   0.97858821     18.754819      170.09496    
    771000   1.0168214      18.927205      170.0169     
    772000   0.97736303     18.200798      169.92128    
    773000   0.96767433     18.443067      169.84463    
    774000   1.0229004      18.730213      169.87678    
    775000   0.96805197     18.287525      169.7853     
    776000   1.0139268      18.859424      169.74505    
    777000   0.95320182     18.524226      169.58695    
    778000   0.99838064     18.798138      169.64857    
    779000   0.97042549     18.707135      169.62177    
    780000   1.0390591      18.763071      169.59933    
    781000   0.98555483     18.82122       169.93961    
    782000   1.0290321      19.015278      169.91777    
    783000   0.99454443     18.687694      169.62265    
    784000   1.0254509      18.261679      169.5163     
    785000   1.0234725      18.831848      169.56838    
    786000   0.96861454     18.441166      169.24546    
    787000   1.0041823      18.493236      169.05421    
    788000   0.97527338     18.308853      168.85551    
    789000   0.97165394     18.644766      168.9989     
    790000   0.99753439     18.732241      168.96868    
    791000   1.0355898      18.915673      168.8823     
    792000   1.0020857      18.710793      168.95783    
    793000   1.0053824      18.376326      168.59452    
    794000   1.0130028      18.555446      168.30175    
    795000   0.99430317     18.955771      168.46449    
    796000   1.0147484      18.538529      168.47073    
    797000   1.0418156      18.470925      168.52046    
    798000   0.96208695     18.457723      168.50267    
    799000   1.0493352      18.535816      168.42921    
    800000   1.0395558      18.712935      168.3302     
    801000   0.97558237     18.386572      168.58596    
    802000   1.0436559      18.400888      168.61291    
    803000   1.0090776      18.611384      168.57276    
    804000   1.027841       19.185562      168.10769    
    805000   0.98401292     18.754896      167.95703    
    806000   1.011691       18.971756      168.09835    
    807000   1.0517343      18.873049      168.16319    
    808000   0.98080201     17.990354      168.02611    
    809000   0.97385334     18.927942      167.98666    
    810000   0.99055741     19.143833      167.8393     
    811000   0.98817706     18.520823      167.57788    
    812000   0.97532487     18.248924      167.32886    
    813000   1.0152401      18.723584      167.48569    
    814000   0.99610348     19.397097      167.56325    
    815000   1.000462       18.180882      167.38799    
    816000   0.98434345     18.659789      167.49805    
    817000   1.0171958      19.456478      167.36524    
    818000   0.99476163     18.924656      167.07327    
    819000   0.97699429     19.133161      166.97376    
    820000   1.0160724      19.100741      166.98518    
    821000   0.97352159     18.499408      166.79759    
    822000   0.97543414     18.293687      166.63519    
    823000   0.98520511     18.250014      166.72011    
    824000   0.98059701     18.711343      166.78766    
    825000   1.0357469      18.889789      166.43665    
    826000   0.99916619     18.209382      166.49528    
    827000   1.0025074      18.902329      166.28158    
    828000   1.04612        19.14937       166.08035    
    829000   0.98632536     18.478058      166.00468    
    830000   1.0211854      19.153193      166.01069    
    831000   1.02385        18.948314      166.01311    
    832000   0.93428697     19.199908      165.92423    
    833000   0.9957265      18.758019      165.69037    
    834000   0.9977033      18.725592      165.54292    
    835000   0.98319273     18.580504      165.51747    
    836000   1.0566865      18.782886      165.20715    
    837000   0.99465657     18.162573      165.00926    
    838000   1.0064967      18.820547      164.84156    
    839000   1.0740191      19.113368      164.53507    
    840000   0.95438091     18.892104      164.25053    
    841000   1.0021737      18.553064      164.24645    
    842000   1.0148071      19.055565      164.10823    
    843000   1.0073491      18.735016      164.13012    
    844000   1.0596236      18.33646       163.9657     
    845000   1.0412468      18.648888      163.63967    
    846000   0.99910909     18.45824       163.52877    
    847000   0.97337975     18.593974      163.6456     
    848000   1.0223246      18.714827      163.54485    
    849000   0.99717806     18.595958      163.16616    
    850000   0.96612086     18.372492      163.10086    
    851000   1.0154323      18.49094       162.76845    
    852000   1.0339734      18.313291      162.75006    
    853000   0.92888263     18.453701      162.53253    
    854000   0.98485591     18.77992       162.62272    
    855000   0.9645499      18.726437      162.6179     
    856000   1.0070366      18.366625      162.48917    
    857000   0.9889752      18.764552      162.4132     
    858000   1.0084499      18.40501       162.21252    
    859000   0.97710078     18.420607      162.1443     
    860000   0.97243492     18.838467      161.79316    
    861000   1.0175485      18.537512      161.76877    
    862000   0.98723709     18.193631      161.65458    
    863000   1.0406824      18.728593      161.45816    
    864000   0.98897294     18.137407      161.3351     
    865000   1.0088225      18.476275      161.17637    
    866000   0.98922343     18.453473      161.0707     
    867000   1.0052171      18.791576      161.19174    
    868000   0.98434653     18.138524      160.89572    
    869000   0.98034849     18.264061      160.80678    
    870000   0.97345464     18.301341      160.71604    
    871000   0.99042203     18.360001      160.55427    
    872000   1.0356551      18.418911      160.31017    
    873000   0.97907023     18.008284      160.21177    
    874000   1.0148123      18.552327      159.93879    
    875000   0.99914024     18.311896      159.99377    
    876000   1.0056736      18.567857      159.72188    
    877000   1.0173986      18.744528      159.76928    
    878000   0.99391693     18.455102      159.80521    
    879000   1.0175022      18.838452      159.53151    
    880000   1.0037107      18.726744      159.2778     
    881000   0.99383338     18.626941      159.15638    
    882000   1.0083101      18.431336      159.20671    
    883000   1.0280842      18.564119      158.93476    
    884000   1.0090034      18.184382      158.8459     
    885000   0.96955532     18.561833      158.93091    
    886000   0.96666845     18.592788      158.60234    
    887000   0.97808855     18.889899      158.71418    
    888000   0.99742175     18.884124      158.60154    
    889000   0.98637893     18.599518      158.29847    
    890000   1.0144793      18.298311      158.01067    
    891000   1.0057259      18.486549      157.75973    
    892000   1.0219409      18.332762      157.63277    
    893000   0.98300152     18.468135      157.56798    
    894000   0.97554461     18.535692      157.59052    
    895000   0.98679333     18.243994      157.52581    
    896000   0.98076183     18.318156      157.48066    
    897000   1.0275222      19.001559      157.59382    
    898000   0.9847443      18.371071      157.41216    
    899000   0.98839221     18.257878      157.3692     
    900000   1.0130222      18.512754      157.27826    
    901000   0.96780955     18.176269      157.27938    
    902000   1.0223162      18.788072      157.14688    
    903000   1.0258288      18.634644      157.43322    
    904000   1.0081463      18.505696      157.43979    
    905000   1.0054285      18.640713      157.51254    
    906000   1.017611       18.885594      157.44201    
    907000   0.98915422     18.518724      157.23719    
    908000   1.0254376      18.875647      157.29129    
    909000   0.96386237     18.352228      157.21944    
    910000   1.0175995      18.079831      157.04729    
    911000   0.96727814     18.574578      156.81668    
    912000   1.0471729      18.415606      156.71557    
    913000   1.0081798      18.532574      156.85075    
    914000   1.0458686      18.408557      156.90874    
    915000   1.0140735      18.99057       156.79405    
    916000   0.9685817      18.620234      156.76736    
    917000   1.0049247      18.366094      156.58284    
    918000   1.0403447      18.593717      156.44815    
    919000   0.98917276     18.27578       156.22362    
    920000   1.0020717      18.533416      156.12552    
    921000   1.0097035      18.708918      155.987      
    922000   1.0227719      18.875708      156.03783    
    923000   0.96788254     18.816528      155.97177    
    924000   0.96939653     18.58693       156.08464    
    925000   0.99155955     18.724009      155.99641    
    926000   1.0099253      18.064405      155.9824     
    927000   0.97736223     18.249725      155.66511    
    928000   0.97642779     18.693087      155.5331     
    929000   0.97519324     18.448363      155.50603    
    930000   1.0302082      18.229843      155.46866    
    931000   1.0202129      19.166672      155.3625     
    932000   0.98477378     18.241015      155.03301    
    933000   1.0221242      18.73293       155.0293     
    934000   0.99415656     18.880438      154.869      
    935000   1.0276021      18.825514      154.89059    
    936000   1.0438293      18.248388      154.89929    
    937000   0.98579034     18.4721        154.72597    
    938000   0.98407265     18.605615      154.71292    
    939000   0.99238082     18.75692       154.83694    
    940000   0.95925338     18.291071      154.86463    
    941000   1.043204       18.167334      154.91914    
    942000   1.0413227      18.569291      154.68001    
    943000   1.0325784      18.810217      154.44212    
    944000   1.0130441      18.501398      154.56457    
    945000   0.9707198      18.013394      154.41275    
    946000   1.021708       18.182707      154.11241    
    947000   0.97330962     19.050165      153.97171    
    948000   1.032846       18.466997      153.99367    
    949000   1.013768       18.828059      153.98018    
    950000   0.99697205     18.324027      154.04879    
    951000   1.0021803      18.496865      154.14199    
    952000   0.97782031     18.823782      153.98486    
    953000   1.017628       18.524837      153.85663    
    954000   1.0302508      18.518552      153.7759     
    955000   1.0146449      19.345507      153.65037    
    956000   0.99212274     18.550958      153.39557    
    957000   1.0085615      18.268598      153.32232    
    958000   0.96985159     18.265074      153.3773     
    959000   0.92476289     18.459072      153.45018    
    960000   1.0294421      18.59633       153.30527    
    961000   1.0349304      18.809957      153.25224    
    962000   0.99554653     18.382498      153.22749    
    963000   0.99737586     18.186327      153.19124    
    964000   1.0647794      18.680598      152.98117    
    965000   0.99438185     18.427943      152.61684    
    966000   1.0047788      18.873771      152.44341    
    967000   1.0234793      18.703711      152.37895    
    968000   1.0098588      18.278632      152.60919    
    969000   1.0597273      18.602962      152.47288    
    970000   0.98476333     18.857168      152.32294    
    971000   0.96107129     18.729402      152.02416    
    972000   0.99516017     18.436623      151.98282    
    973000   0.96023069     18.769431      152.02737    
    974000   0.97299618     18.456383      151.5299     
    975000   0.99776318     18.896992      151.53114    
    976000   0.99330125     18.797895      151.36849    
    977000   0.98950086     18.596206      151.24633    
    978000   0.98679118     18.863924      150.93742    
    979000   1.032704       18.665774      150.97353    
    980000   1.0120884      18.957037      150.8323     
    981000   0.97892168     18.790585      150.82282    
    982000   0.93461977     18.453977      150.72003    
    983000   1.0342125      18.686966      150.62036    
    984000   0.99935123     18.381598      150.49823    
    985000   1.03961        18.315655      150.36831    
    986000   0.9773802      18.230103      150.28689    
    987000   1.0526313      18.273277      150.0912     
    988000   0.98814458     18.803781      150.14621    
    989000   1.0052953      18.125713      150.17152    
    990000   1.0264717      19.336573      150.18152    
    991000   0.99551149     18.335776      149.91555    
    992000   1.0083759      19.391059      149.78397    
    993000   1.0307828      18.703944      149.6384     
    994000   0.98965958     18.394907      149.72206    
    995000   0.97522482     17.997965      149.85162    
    996000   1.036824       18.765354      149.96477    
    997000   1.0323598      18.240084      149.92863    
    998000   1.0512572      18.448142      149.92002    
    999000   1.0003906      18.952255      149.79574    
   1000000   1.0249453      18.939487      149.80107    
   1001000   1.0019171      17.77283       149.83105    
   1002000   0.99353269     18.230549      149.83369    
   1003000   1.0066967      18.425829      149.70882    
   1004000   0.98142387     18.662217      149.70397    
   1005000   0.9736832      19.085818      149.37878    
   1006000   0.96299164     18.35491       149.57072    
   1007000   0.97447466     18.057243      149.46311    
   1008000   0.99065602     17.867841      149.51794    
   1009000   1.0522016      19.363214      149.30254    
   1010000   1.0093479      18.348395      149.09234    
   1011000   0.9957144      18.481836      148.79087    
   1012000   0.97930722     18.547843      148.75118    
   1013000   1.0164357      18.445389      148.68302    
   1014000   0.98249515     18.194066      148.81285    
   1015000   1.0010601      18.48564       148.76357    
   1016000   1.0263997      18.377701      148.52745    
   1017000   0.96021268     18.772813      148.62482    
   1018000   1.0423991      19.004738      148.50316    
   1019000   1.0179993      18.312029      148.42775    
   1020000   0.9967351      18.306017      148.15701    
   1021000   0.97802301     18.589204      148.06634    
   1022000   1.0169485      18.339425      147.85308    
   1023000   1.0227225      18.3637        147.75412    
   1024000   0.98285028     18.423399      147.63529    
   1025000   1.0309189      18.161306      147.84488    
   1026000   1.0165672      18.447933      147.83357    
   1027000   1.0379195      18.460142      147.56971    
   1028000   0.95755955     18.137597      147.48392    
   1029000   0.9918229      18.741682      147.42042    
   1030000   1.0004566      18.260325      147.52288    
   1031000   1.0057526      18.285451      147.31024    
   1032000   0.9837302      18.520708      147.35042    
   1033000   0.95880099     18.174011      147.38104    
   1034000   1.030765       18.490873      147.49794    
   1035000   0.94736649     18.305653      147.42096    
   1036000   0.98374605     18.16881       147.17334    
   1037000   0.98141882     18.173237      147.09388    
   1038000   1.031068       18.457219      147.10545    
   1039000   0.97194096     17.897549      147.01055    
   1040000   0.99987293     18.004207      146.96817    
   1041000   1.0543343      18.480377      146.98571    
   1042000   0.99146065     18.485385      146.78508    
   1043000   0.98554495     18.224774      147.00417    
   1044000   1.0318993      18.651822      146.84797    
   1045000   1.0055992      18.66535       146.97288    
   1046000   0.99540193     18.478305      146.84916    
   1047000   0.9448578      18.207992      146.88008    
   1048000   1.0252695      18.474102      146.85907    
   1049000   1.008636       18.125357      146.59296    
   1050000   1.004966       18.764109      146.63616    
   1051000   0.99907082     18.06032       146.76744    
   1052000   0.9999976      18.240595      146.80696    
   1053000   1.0208243      18.346809      146.75583    
   1054000   1.0035208      17.904417      146.67342    
   1055000   0.99248949     17.902977      146.52456    
   1056000   0.98028852     18.350321      146.37047    
   1057000   0.9982606      18.306687      146.36803    
   1058000   0.99265022     18.532296      146.4395     
   1059000   1.0445439      19.177491      146.18985    
   1060000   1.0213035      18.651036      146.29532    
   1061000   0.99316975     18.210242      146.35306    
   1062000   0.99623438     18.122492      146.16199    
   1063000   0.98665451     18.418183      146.06673    
   1064000   0.94931761     18.532317      145.93376    
   1065000   0.9892007      18.253851      145.82813    
   1066000   0.98988791     19.077507      145.87104    
   1067000   0.99458672     18.337295      145.83685    
   1068000   1.0160894      18.866256      145.84337    
   1069000   1.0067242      18.581498      145.7568     
   1070000   1.0141464      18.605732      145.69014    
   1071000   0.98755089     17.763757      145.73986    
   1072000   1.0106021      18.414394      145.73854    
   1073000   0.97514968     17.987346      145.57071    
   1074000   1.0241683      18.139179      145.57915    
   1075000   0.96510688     18.094593      145.48356    
   1076000   0.93366924     17.909038      145.50054    
   1077000   0.99298186     18.387077      145.51964    
   1078000   1.0017814      18.588089      145.52455    
   1079000   1.0115414      18.413494      145.34804    
   1080000   1.0271767      18.452821      145.13262    
   1081000   0.96002481     18.166342      145.43752    
   1082000   0.95376137     17.700278      145.32532    
   1083000   1.0119366      18.451147      145.24297    
   1084000   1.0145234      18.304131      145.28266    
   1085000   0.99210084     18.229128      145.17397    
   1086000   1.0577162      18.226474      145.29232    
   1087000   1.0356061      18.340491      145.32412    
   1088000   1.0233921      18.601069      145.30067    
   1089000   0.98253477     18.297897      145.22302    
   1090000   1.0090885      18.912248      145.30866    
   1091000   0.98329871     18.038963      145.07761    
   1092000   0.98573787     17.82922       144.96198    
   1093000   1.0147146      18.631394      144.88114    
   1094000   1.023838       18.337538      144.82289    
   1095000   1.0000365      18.307455      144.78983    
   1096000   1.0232235      17.914641      144.62751    
   1097000   1.0035352      17.860955      144.50545    
   1098000   0.99722059     18.09894       144.26049    
   1099000   1.0330169      18.036561      144.15971    
   1100000   1.0306942      18.123355      144.11147    
   1101000   0.99030081     18.168648      144.04979    
   1102000   1.0079033      18.085311      143.91579    
   1103000   1.0052052      18.515339      143.70021    
   1104000   0.96668181     18.282829      143.7655     
   1105000   1.0065116      18.318691      143.79098    
   1106000   1.0541417      18.430999      143.72682    
   1107000   1.0023969      18.467079      143.66162    
   1108000   0.98389341     18.216818      143.46944    
   1109000   0.99962862     18.533956      143.63655    
   1110000   0.98180166     18.867415      143.67745    
   1111000   1.0175879      18.312161      143.76185    
   1112000   1.0129719      18.527649      143.8204     
   1113000   0.98111757     18.381791      143.68693    
   1114000   0.99482759     18.443261      143.64678    
   1115000   0.9830432      18.530116      143.62341    
   1116000   0.98426372     18.563867      143.44765    
   1117000   0.95580176     18.422236      143.24927    
   1118000   0.96692897     17.531265      143.18642    
   1119000   1.0163213      18.672103      143.21666    
   1120000   1.0278739      18.122262      142.8314     
   1121000   0.99176412     18.024443      142.87513    
   1122000   1.0118003      18.120785      142.9312     
   1123000   1.0448695      18.316093      142.83114    
   1124000   1.0259887      18.03874       142.64785    
   1125000   1.0017397      18.597695      142.38637    
   1126000   1.0073356      18.215446      142.17462    
   1127000   1.0010033      18.289749      142.27743    
   1128000   1.0017172      18.581492      142.27074    
   1129000   1.0032994      18.117385      142.33825    
   1130000   0.97847121     18.533664      142.29541    
   1131000   0.98922655     18.009293      142.17491    
   1132000   1.0123705      17.892672      141.88194    
   1133000   0.9853013      18.920064      141.61519    
   1134000   1.0493654      18.362341      141.39492    
   1135000   1.008143       17.933259      141.36543    
   1136000   1.0061606      18.425301      141.24906    
   1137000   1.005963       18.77671       141.04353    
   1138000   1.0306418      18.380756      140.84919    
   1139000   1.003675       18.229949      140.73419    
   1140000   1.0300975      18.174632      140.4337     
   1141000   1.039725       18.669708      140.23508    
   1142000   1.0162574      18.33626       139.90568    
   1143000   0.95498599     18.062332      139.60822    
   1144000   1.0143314      18.580468      139.64344    
   1145000   1.004617       18.177337      139.46041    
   1146000   0.95705337     18.40838       139.2416     
   1147000   1.0720709      18.524329      139.25339    
   1148000   1.0341721      18.096069      139.23403    
   1149000   0.9504561      17.850961      139.06719    
   1150000   1.0072692      18.193644      139.18895    
   1151000   1.0084627      18.730426      139.09682    
   1152000   1.0230946      18.310214      139.08178    
   1153000   1.0390561      18.849769      139.08704    
   1154000   0.99888257     18.392051      139.32835    
   1155000   1.0519843      18.412828      139.36739    
   1156000   1.0315283      18.388795      139.03942    
   1157000   1.0312441      18.687017      138.79778    
   1158000   0.99659132     18.172376      138.63739    
   1159000   0.96151345     18.534494      138.68889    
   1160000   1.0266751      18.323215      138.65886    
   1161000   0.98354956     18.429932      138.77716    
   1162000   1.018902       18.824315      138.53885    
   1163000   1.0159487      18.507984      138.3735     
   1164000   1.0331604      18.830419      138.21692    
   1165000   1.0106519      18.059957      138.19005    
   1166000   0.95821396     18.364414      138.1219     
   1167000   0.99682657     18.311972      137.92601    
   1168000   0.99516315     17.78365       137.97298    
   1169000   1.0290518      18.518718      137.80706    
   1170000   1.0487729      18.429992      137.84127    
   1171000   0.97841817     17.80163       137.72039    
   1172000   1.0082463      18.252565      137.63482    
   1173000   1.0100772      18.414567      137.69628    
   1174000   0.98325216     18.336257      137.63388    
   1175000   0.99213896     18.142509      137.57376    
   1176000   1.0793772      18.947222      137.36092    
   1177000   1.0279796      18.660886      137.29944    
   1178000   0.99525536     18.007938      137.03364    
   1179000   0.95361232     17.743188      136.83181    
   1180000   0.9920914      17.574271      136.74687    
   1181000   1.0198717      18.432086      136.69271    
   1182000   0.94394598     18.031487      136.70528    
   1183000   0.99245988     18.835763      136.41617    
   1184000   0.98789085     17.467815      136.16651    
   1185000   1.0135032      18.227738      136.00955    
   1186000   0.97978772     18.387785      135.89064    
   1187000   0.97291119     18.046008      135.65372    
   1188000   1.0139032      18.394523      135.50356    
   1189000   1.0145841      18.307218      135.42833    
   1190000   1.0357086      18.688951      135.24011    
   1191000   1.0036435      17.851166      135.23894    
   1192000   0.97847732     18.132774      135.2549     
   1193000   1.0282418      18.135711      135.2218     
   1194000   1.0150059      18.296388      135.07926    
   1195000   1.0366703      17.979473      135.05433    
   1196000   0.9681088      18.847847      134.80104    
   1197000   1.050985       18.011102      134.79327    
   1198000   0.99931481     18.25845       134.67078    
   1199000   1.0680656      18.654171      134.78058    
   1200000   1.0346491      18.540254      134.81492    
   1201000   0.99604702     18.418529      134.49994    
   1202000   1.0358201      18.005715      134.61767    
   1203000   1.0361481      18.464919      134.78599    
   1204000   1.0094169      18.361107      134.91024    
   1205000   1.0075951      17.997688      135.11926    
   1206000   1.0162735      18.346609      134.87248    
   1207000   0.99238814     18.220835      134.78062    
   1208000   0.97165692     18.443258      134.54192    
   1209000   1.0421538      17.828627      134.60631    
   1210000   1.0343003      18.293778      134.53818    
   1211000   0.99103154     18.170215      134.41863    
   1212000   0.98649673     18.028827      134.36548    
   1213000   0.9596708      18.28065       134.14177    
   1214000   1.0132496      18.868684      134.1478     
   1215000   0.98480264     17.983997      134.25457    
   1216000   0.98234943     18.796532      134.1638     
   1217000   1.004614       18.431265      134.3468     
   1218000   1.0134178      17.984363      134.21105    
   1219000   1.0229455      17.801123      134.281      
   1220000   0.98442374     18.138         134.14909    
   1221000   0.99836981     18.815985      133.9534     
   1222000   0.98207645     18.034912      133.86451    
   1223000   1.0340008      18.079219      133.80758    
   1224000   0.97555491     17.608092      133.73603    
   1225000   0.99563536     18.161558      133.55037    
   1226000   1.0097342      18.835287      133.47232    
   1227000   0.98893924     18.126359      133.20429    
   1228000   0.96662294     17.665608      133.10006    
   1229000   0.99621949     17.795611      133.12022    
   1230000   1.0213882      18.08317       133.08993    
   1231000   0.96408343     18.510431      132.86951    
   1232000   0.99794325     18.122572      132.91137    
   1233000   0.99359774     18.475544      132.96288    
   1234000   0.97621261     17.981379      132.87519    
   1235000   1.0185682      18.059821      132.91047    
   1236000   0.98860677     18.226722      132.93311    
   1237000   0.97819731     18.422649      132.9329     
   1238000   0.97868614     18.014469      133.0587     
   1239000   0.99130487     18.286383      133.00055    
   1240000   1.0343838      18.462688      132.63237    
   1241000   1.0088791      17.856741      132.58644    
   1242000   0.99399869     17.631206      132.48506    
   1243000   0.97727945     18.277392      132.0506     
   1244000   0.96943825     17.801136      131.89305    
   1245000   1.0366305      18.505498      131.75283    
   1246000   1.0188465      17.790847      131.56216    
   1247000   0.96479311     17.927978      131.56773    
   1248000   0.96122101     18.356794      131.70195    
   1249000   0.96858959     17.652846      131.59268    
   1250000   1.0178309      18.286531      131.29093    
   1251000   0.96884103     18.281841      131.23061    
   1252000   0.99345476     17.651039      131.09177    
   1253000   0.97425584     17.735792      131.01003    
   1254000   0.98211441     17.879203      130.85881    
   1255000   1.0094811      18.333587      130.91381    
   1256000   1.0091557      18.675065      130.95372    
   1257000   1.0399374      18.318585      130.97837    
   1258000   1.0178412      18.065963      130.7975     
   1259000   0.99345576     18.126254      130.75965    
   1260000   1.0519808      18.347732      130.59115    
   1261000   1.0284657      18.469558      130.48691    
   1262000   0.97469084     18.173752      130.48076    
   1263000   1.0240091      18.51603       130.27008    
   1264000   0.97334852     18.353277      130.15999    
[...]
   4789000   0.97795001     16.333967      5.1006986    
   4790000   1.0017152      16.164329      5.0938461    
   4791000   0.99685621     16.703955      5.1049301    
   4792000   0.96567012     16.471728      5.1411186    
   4793000   0.98902838     16.821705      5.0984286    
   4794000   0.99224693     17.331645      5.0908684    
   4795000   1.0074787      16.798985      5.0749653    
   4796000   0.99663628     16.503978      5.100426     
   4797000   0.98034455     16.659075      5.1192697    
   4798000   1.0058676      16.889106      5.1227294    
   4799000   0.98279197     17.064841      5.1375242    
   4800000   1.0108096      16.866334      5.1640296    
   4801000   0.97647759     17.536408      5.1345089    
   4802000   0.99286961     16.073603      5.1137071    
   4803000   1.036782       16.687836      5.0662307    
   4804000   1.003297       17.217542      5.0450555    
   4805000   1.0310608      16.842196      5.1179658    
   4806000   1.0326226      17.218465      5.0817162    
   4807000   1.0167119      17.325353      5.0407243    
   4808000   0.99531288     16.964878      5.1038104    
   4809000   1.0195727      16.574801      5.1067717    
   4810000   0.99623402     16.524245      5.1192097    
   4811000   0.98153468     16.448643      5.1212637    
   4812000   1.0059186      17.703557      5.1017409    
   4813000   0.98363676     16.630741      5.1451046    
   4814000   1.0008283      16.314774      5.1119407    
   4815000   1.0043346      17.128328      5.1035396    
   4816000   0.9933653      16.600005      5.1283929    
   4817000   1.0578324      16.68189       5.1135818    
   4818000   0.9680969      16.637655      5.0973207    
   4819000   1.0195971      16.499704      5.1078439    
   4820000   0.94139949     16.473379      5.1228453    
   4821000   0.97003892     16.609718      5.1063862    
   4822000   0.96393635     16.535066      5.0871294    
   4823000   1.0203043      17.282206      5.1029253    
   4824000   1.031662       16.485893      5.1317722    
   4825000   1.0029518      16.51946       5.1274696    
   4826000   0.99853838     16.970844      5.043204     
   4827000   0.97339648     16.849355      5.0877805    
   4828000   1.0099634      17.006788      5.0795845    
   4829000   0.98624886     16.869391      5.0581672    
   4830000   1.0052586      17.069987      5.1206611    
   4831000   1.0176226      16.406882      5.0920444    
   4832000   1.0089419      17.087723      5.1281695    
   4833000   0.99310189     16.809321      5.1046576    
   4834000   0.94750272     16.541003      5.1221986    
   4835000   1.0351558      17.577925      5.0944061    
   4836000   1.00083        17.11415       5.1292785    
   4837000   0.9826237      16.961158      5.1458534    
   4838000   0.99028265     16.90997       5.1002327    
   4839000   1.0342608      16.419793      5.1573775    
   4840000   0.9534783      16.839186      5.1303276    
   4841000   1.0045219      17.025853      5.1988664    
   4842000   1.0382536      17.461033      5.1477402    
   4843000   1.0016211      16.74268       5.1165941    
   4844000   1.0512108      17.617322      5.0627208    
   4845000   0.98109548     16.902371      5.0914013    
   4846000   0.92972931     17.048122      5.1158728    
   4847000   0.99024382     16.874816      5.1250374    
   4848000   1.0056348      17.35068       5.0638517    
   4849000   1.008544       16.848274      5.0992031    
   4850000   0.99533628     16.836234      5.1296502    
   4851000   0.96865075     17.645504      5.1104287    
   4852000   1.0118134      16.726304      5.0978351    
   4853000   0.99459001     16.670854      5.1240783    
   4854000   1.0105649      17.160337      5.1134467    
   4855000   1.0232598      16.774828      5.1041472    
   4856000   1.0151877      16.815484      5.1133513    
   4857000   1.0153255      16.534488      5.0863497    
   4858000   0.9965899      17.366797      5.1023082    
   4859000   0.99944388     16.771609      5.1339241    
   4860000   0.97672662     16.4035        5.1327946    
   4861000   0.98937322     16.969367      5.1302323    
   4862000   1.0016823      16.744318      5.1279742    
   4863000   0.99990848     17.181553      5.1237065    
   4864000   1.0196819      16.857499      5.1130037    
   4865000   1.0203213      17.239201      5.0453046    
   4866000   1.0360151      16.673997      5.1030549    
   4867000   0.99339605     17.156709      5.0816223    
   4868000   0.98396641     17.544159      5.0769587    
   4869000   0.96432819     16.648718      5.0791584    
   4870000   1.0005146      16.496236      5.1017665    
   4871000   1.0212714      16.847193      5.0661002    
   4872000   1.003148       17.113391      5.0525409    
   4873000   0.98751538     16.366058      5.0645677    
   4874000   1.0128468      16.53927       5.0561241    
   4875000   0.98551721     16.649662      5.0659099    
   4876000   1.0114152      16.926919      5.0580996    
   4877000   1.0459092      16.813417      5.1070522    
   4878000   1.0496141      16.815512      5.1289505    
   4879000   0.96764878     16.539609      5.0765793    
   4880000   0.99524513     16.960549      5.0976189    
   4881000   0.97776857     16.888846      5.0666286    
   4882000   1.0099424      16.962717      5.1298174    
   4883000   1.0111818      16.761927      5.1137984    
   4884000   0.97753689     16.874841      5.1279492    
   4885000   1.0470981      17.059711      5.1076253    
   4886000   0.98672225     17.12449       5.0687898    
   4887000   1.0107529      16.201431      5.076518     
   4888000   1.0005489      17.054404      5.0681601    
   4889000   1.0254838      16.655749      5.0550608    
   4890000   0.97015515     16.88334       5.1001855    
   4891000   0.94872948     17.010383      5.0601378    
   4892000   1.0251981      16.308394      5.0947356    
   4893000   1.0182982      17.092678      5.1240936    
   4894000   1.0317309      17.205733      5.1369454    
   4895000   0.99918154     16.984382      5.0957811    
   4896000   0.98115175     17.349989      5.087438     
   4897000   0.97043014     16.150077      5.1179515    
   4898000   0.96902586     16.708237      5.0810204    
   4899000   0.95414165     16.53115       5.0762823    
   4900000   0.98581705     17.264713      5.0759819    
   4901000   0.98773046     17.101649      5.1045096    
   4902000   1.0024005      17.157777      5.0600757    
   4903000   1.0109263      16.588055      5.0733122    
   4904000   0.97851013     16.6271        5.0929683    
   4905000   0.99628669     16.441238      5.0662782    
   4906000   0.99969209     17.048572      5.0577106    
   4907000   0.99471491     16.697059      5.1084145    
   4908000   0.99237781     16.695498      5.0844946    
   4909000   1.0303849      16.470511      5.088086     
   4910000   1.0249258      16.993863      5.0743366    
   4911000   0.98358694     16.547251      5.063452     
   4912000   0.98224219     16.668646      5.1070746    
   4913000   0.9623123      16.758861      5.0937167    
   4914000   1.0066289      16.849675      5.0814259    
   4915000   1.0456391      16.417102      5.1376626    
   4916000   0.97433812     17.243438      5.10687      
   4917000   1.0137351      16.861328      5.1156142    
   4918000   1.0046095      16.488864      5.1106916    
   4919000   1.0040715      16.858549      5.0900518    
   4920000   1.0103878      16.995223      5.0996994    
   4921000   1.0258298      17.067647      5.1033132    
   4922000   1.0089208      17.061149      5.1347995    
   4923000   1.0250789      17.321091      5.116027     
   4924000   1.0256086      16.722473      5.0682557    
   4925000   1.0374636      17.103238      5.0522498    
   4926000   0.99445614     17.092401      5.0600485    
   4927000   1.0119333      16.708289      5.0661715    
   4928000   1.0246159      17.073114      5.1062312    
   4929000   0.97634326     16.775775      5.1150937    
   4930000   1.0552392      16.526338      5.1417614    
   4931000   1.0430791      16.672954      5.0996524    
   4932000   1.0088665      16.880902      5.1026589    
   4933000   1.0091125      16.977409      5.081727     
   4934000   0.97549771     17.029326      5.1118758    
   4935000   0.96858535     16.600418      5.0939477    
   4936000   1.0180422      17.395403      5.0684864    
   4937000   0.99068781     16.605631      5.1159001    
   4938000   1.038609       16.39947       5.1072241    
   4939000   1.0198791      16.577244      5.0939078    
   4940000   0.98441669     16.811037      5.1020952    
   4941000   0.97056128     16.547995      5.1080842    
   4942000   1.0128482      16.965463      5.095772     
   4943000   1.0142289      17.036727      5.1155435    
   4944000   1.0138878      16.644039      5.1081899    
   4945000   0.97540203     16.245757      5.0851726    
   4946000   0.99904672     16.907581      5.1055985    
   4947000   1.0315043      16.333555      5.0912872    
   4948000   0.99736525     16.527714      5.0767998    
   4949000   0.9862206      17.374913      5.0790986    
   4950000   1.0250769      16.604152      5.1147549    
   4951000   0.95328274     16.950026      5.105385     
   4952000   1.0294999      16.764813      5.1117652    
   4953000   1.0293935      16.92775       5.123478     
   4954000   1.024039       16.873284      5.1462608    
   4955000   0.97132016     16.867708      5.1065299    
   4956000   1.0048203      17.092108      5.1423769    
   4957000   0.98052473     17.419601      5.1365084    
   4958000   0.96311413     16.682751      5.1229197    
   4959000   0.99708099     16.777641      5.1071744    
   4960000   1.0324981      17.254565      5.114509     
   4961000   0.99141533     17.465316      5.0721608    
   4962000   1.0333168      16.93301       5.106092     
   4963000   0.95118587     17.338384      5.0997547    
   4964000   1.0163653      16.742794      5.0627798    
   4965000   1.0089513      17.111979      5.0971151    
   4966000   1.0143209      16.830838      5.0918135    
   4967000   0.99835897     16.411743      5.0917343    
   4968000   1.0097017      17.409409      5.082163     
   4969000   1.0317152      16.573659      5.0900854    
   4970000   0.99004266     17.071294      5.0702229    
   4971000   1.0292871      17.363247      5.0425643    
   4972000   1.011787       16.898407      5.063363     
   4973000   0.99175237     17.047132      5.0724869    
   4974000   0.94786543     17.172751      5.0486473    
   4975000   0.98371094     17.073432      5.0873592    
   4976000   1.0171394      16.881142      5.0611502    
   4977000   1.0220091      17.682914      5.0292194    
   4978000   1.0013183      17.27065       5.0516929    
   4979000   1.0222192      16.49527       5.0542286    
   4980000   1.0046137      17.029266      5.0325817    
   4981000   0.98572477     17.286823      5.0641848    
   4982000   0.98359405     17.462417      5.0714458    
   4983000   1.0009384      16.903759      5.0898846    
   4984000   0.98500286     16.601807      5.0941883    
   4985000   0.97850598     16.223491      5.0414626    
   4986000   1.0491123      17.328913      5.0847789    
   4987000   0.99150151     16.701009      5.0742178    
   4988000   1.0448907      16.736828      5.0717478    
   4989000   1.0014354      16.354504      5.097265     
   4990000   0.99008972     16.597677      5.1682157    
   4991000   1.0229005      17.046031      5.112297     
   4992000   0.98306259     17.180515      5.1275761    
   4993000   1.0264649      16.288752      5.0961338    
   4994000   0.98683968     16.287523      5.0995944    
   4995000   1.0191123      17.15338       5.0995191    
   4996000   1.0113054      16.634937      5.0660164    
   4997000   1.0045677      16.389916      5.0827923    
   4998000   1.0073063      17.105497      5.058041     
   4999000   0.98054285     16.699726      5.079201     
   5000000   1.0239568      16.654667      5.0973427    
   5001000   0.99128122     16.176916      5.0863823    
   5002000   1.0179896      16.875984      5.0809534    
   5003000   0.97806695     16.439082      5.107376     
   5004000   1.0046776      16.906814      5.1161067    
   5005000   0.98740422     16.646624      5.1219539    
   5006000   1.0032102      17.27988       5.1000304    
   5007000   0.9863655      16.300643      5.1166418    
   5008000   0.99845856     17.141195      5.1384537    
   5009000   1.0038979      16.856493      5.0753487    
   5010000   0.98856809     16.493843      5.1067009    
   5011000   1.0264406      16.272529      5.0842775    
   5012000   1.0271994      17.071982      5.0662437    
   5013000   1.0190223      16.612187      5.0682636    
   5014000   1.0305009      16.475958      5.0904343    
   5015000   0.98379037     16.273898      5.1093386    
   5016000   1.0094278      17.180982      5.0669443    
   5017000   0.98074099     17.083409      5.0950777    
   5018000   0.98284648     16.397447      5.1135161    
   5019000   0.97050151     16.471867      5.0968845    
   5020000   1.004059       16.89709       5.0983782    
   5021000   1.0328631      16.342713      5.1141009    
   5022000   1.0294703      16.8102        5.154964     
   5023000   0.99620194     16.739297      5.1623866    
   5024000   1.0177161      16.818053      5.1539781    
   5025000   0.99775074     17.723725      5.1444775    
   5026000   1.0347516      16.790285      5.1552704    
   5027000   0.99666372     16.556775      5.1595994    
   5028000   0.9700577      16.753656      5.1296546    
   5029000   1.0206864      17.081727      5.1000993    
   5030000   1.0189501      16.608353      5.1118511    
   5031000   1.0250847      16.626804      5.0992037    
   5032000   0.99626177     17.669553      5.109617     
   5033000   0.99207973     16.95273       5.0759357    
   5034000   0.9816098      17.449801      5.0613599    
   5035000   0.93693412     15.683182      5.0731328    
   5036000   0.96921766     16.617283      5.0717226    
   5037000   0.99110737     16.357344      5.0870056    
   5038000   0.98595534     16.315875      5.0689533    
   5039000   1.0253387      16.742578      5.0462914    
   5040000   0.99628174     16.885812      5.0494686    
   5041000   1.0259642      16.845257      5.0581125    
   5042000   1.0169428      17.325157      5.0685793    
   5043000   0.98449399     17.244976      5.0644935    
   5044000   1.0243906      17.164093      5.0640935    
   5045000   0.95546626     16.761096      5.0524827    
   5046000   1.0353775      17.145958      5.0663196    
   5047000   0.97183299     16.757848      5.0932468    
   5048000   1.027478       17.016824      5.1112251    
   5049000   1.0155013      17.559306      5.0873951    
   5050000   0.9844854      16.878017      5.0931791    
   5051000   1.0107569      16.441606      5.1171943    
   5052000   0.99515743     16.377246      5.0704787    
   5053000   0.93748315     16.94242       5.0591529    
   5054000   0.9802048      17.04226       5.0719207    
   5055000   1.0267176      16.820056      5.0755686    
   5056000   0.98627759     17.122883      5.0696609    
   5057000   0.98701329     16.904753      5.081866     
   5058000   1.0290662      16.717847      5.0621987    
   5059000   0.98225018     16.8415        5.0957371    
   5060000   1.0186231      16.793829      5.0865722    
   5061000   0.97171331     16.647532      5.0703903    
   5062000   1.0230042      16.678846      5.0577142    
   5063000   1.0109895      16.708232      5.0575986    
   5064000   1.0085299      16.564442      5.0716177    
   5065000   0.97950171     17.368722      5.0615109    
   5066000   0.98044586     17.068922      5.0842749    
   5067000   0.98013556     17.038732      5.077664     
   5068000   1.047377       17.11826       5.1333272    
   5069000   0.99468211     16.577344      5.1302925    
   5070000   1.0096792      16.953404      5.1049238    
   5071000   0.99569047     17.38381       5.1074183    
   5072000   0.97918931     16.302231      5.1206512    
   5073000   1.0140323      16.839963      5.070134     
   5074000   0.98205196     16.799822      5.0737107    
   5075000   0.97878008     16.793928      5.0784497    
   5076000   0.96133734     16.589756      5.0947985    
   5077000   1.037225       16.774853      5.1368028    
   5078000   1.0174149      16.353521      5.1163274    
   5079000   1.0316005      16.997592      5.0610427    
   5080000   0.96194189     16.530423      5.0849831    
   5081000   0.95786696     17.361766      5.1230395    
   5082000   1.0438573      16.946383      5.1031022    
   5083000   0.98691114     17.153731      5.0819971    
   5084000   1.0160922      17.281925      5.09987      
   5085000   1.0051958      17.181463      5.1660624    
   5086000   0.99873178     16.961         5.0924927    
   5087000   0.9979266      16.885092      5.1004037    
   5088000   0.99132133     16.574817      5.0789857    
   5089000   0.99705834     16.918778      5.1134827    
   5090000   1.0211687      17.673075      5.0453154    
   5091000   1.0361062      17.343972      5.0630265    
   5092000   0.99491861     17.312266      5.0736205    
   5093000   1.0225441      16.915811      5.0768979    
   5094000   1.0044707      16.641657      5.0591651    
   5095000   1.0403377      16.150923      5.0950501    
   5096000   0.98932519     16.551899      5.0809557    
   5097000   0.98703372     16.526344      5.0967299    
   5098000   1.017688       17.351201      5.0862688    
   5099000   0.98779241     16.420578      5.1222546    
   5100000   0.99328592     16.726362      5.0699679    
Loop time of 5545.62 on 4 procs for 5000000 steps with 1000 atoms

Performance: 778992.712 tau/day, 901.612 timesteps/s
153.9% CPU use with 2 MPI tasks x 2 OpenMP threads

MPI task timing breakdown:
Section |  min time  |  avg time  |  max time  |%varavg| %total
---------------------------------------------------------------
Pair    | 127.4      | 1280.3     | 2433.1     |3222.0 | 23.09
Bond    | 24.837     | 71.818     | 118.8      | 554.4 |  1.30
Neigh   | 2624.3     | 2624.3     | 2624.3     |   0.0 | 47.32
Comm    | 95.008     | 424        | 753        |1597.7 |  7.65
Output  | 12.612     | 12.755     | 12.899     |   4.0 |  0.23
Modify  | 47.64      | 136.96     | 226.29     | 763.2 |  2.47
Other   |            | 995.5      |            |       | 17.95

Nlocal:            500 ave        1000 max           0 min
Histogram: 1 0 0 0 0 0 0 0 0 1
Nghost:              0 ave           0 max           0 min
Histogram: 2 0 0 0 0 0 0 0 0 0
Neighs:         134110 ave      268220 max           0 min
Histogram: 1 0 0 0 0 0 0 0 0 1

Total # of neighbors = 268220
Ave neighs/atom = 268.22
Ave special neighs/atom = 1.998
Neighbor list builds = 41304
Dangerous builds = 0

# This simulation is done
# Move onto the next one
clear
  using 2 OpenMP thread(s) per MPI task
package omp 0
using multi-threaded neighbor list subroutines
next f
jump SELF

###
# Reference paper:
# K. Kremer and G. S. Grest
# Dynamics of entangled linear polymer melts: A molecular-dynamics simulation
# J Chem Phys 92, 5057 (1990)

##################################
# MIHIR: for branched polymers
# LJ minimum first to expand and explore, then collapse
###

###
# Looping through the various linear polymers to simulate,
# define variables to switch through
variable f index bb100nuc0bl0bn0d30tot100 bb200nuc0bl0bn0d30tot200 bb300nuc0bl0bn0d30tot300 bb400nuc0bl0bn0d30tot400 bb500nuc0bl0bn0d30tot500 bb600nuc0bl0bn0d30tot600 bb700nuc0bl0bn0d30tot700 bb800nuc0bl0bn0d30tot800 bb900nuc0bl0bn0d30tot900 bb1000nuc0bl0bn0d30tot1000 bb1100nuc0bl0bn0d30tot1100 bb1200nuc0bl0bn0d30tot1200
###


###
# Box and units  (use LJ units and periodic boundaries)
###

units lj
log linear/logs/$f.log
log linear/logs/bb1100nuc0bl0bn0d30tot1100.log
