#atom_style bond #no stiffness
atom_style angle #with stiffness

boundary        p p p
###
# Pair interactions require lists of neighbours to be calculated
###

#neighbor 0.3 bin
neighbor 4 bin

neigh_modify every 1 delay 1 check yes
atom_modify sort 0 0
### Generate RESTART file, SPECIAL format, not a .txt file ###
### Useful if simulation crashes ###

restart 1000000 linear/restarts/$f.restart
restart 1000000 linear/restarts/bb1100nuc0bl0bn0d30tot1100.restart
#############################



### READ "start" data file ###

read_data linear/$f.dat
read_data linear/bb1100nuc0bl0bn0d30tot1100.dat
Reading data file ...
  orthogonal box = (-1000 -1000 -1000) to (1000 1000 1000)
  1 by 1 by 2 MPI processor grid
  reading atoms ...
  1100 atoms
  scanning bonds ...
  1 = max bonds/atom
  scanning angles ...
  1 = max angles/atom
  reading bonds ...
  1099 bonds
  reading angles ...
  1098 angles
Finding 1-2 1-3 1-4 neighbors ...
  special bond factors lj:    0        0        0       
  special bond factors coul:  0        0        0       
     2 = max # of 1-2 neighbors
     2 = max # of 1-3 neighbors
     4 = max # of 1-4 neighbors
     6 = max # of special neighbors
  special bonds CPU = 0.001 seconds
  read_data CPU = 0.061 seconds

######################

### READ "REstart" data file ###

######################



###
# Define groups (atom type 1 is group 'all')
###
group all type 1
1100 atoms in group all


###
# Dump configs - "simple dumpings"
###

###
# Dump configs + box coords
###

dump   1   all   custom   1000  linear/trjs/$f.lammpstrj  id  x y z  ix iy iz
dump   1   all   custom   1000  linear/trjs/bb1100nuc0bl0bn0d30tot1100.lammpstrj  id  x y z  ix iy iz
dump_modify   1   format line "%d %.5f %.5f %.5f %d %d %d"

########################################################################


###################################################################
# Stiffness term
#
# E = K * (1+cos(theta)), K>0
#
angle_style   cosine
#change this coefficient to change stiffness (e.g. 1,5,10)
angle_coeff   1 1.0
###################################################################

###################################################################
# Pair interaction between non-bonded atoms
#
#  Lennard-Jones 12-6 potential with cutoff:
#  potential E=4epsilon[ (sigma/r)^12 - (sigma/r)^6]  for r<r_cut
#
#  1.12246 = 2^(1/6) is the minimum of the potential


pair_style      lj/cut 1.12246152962189
#pair_style      lj/cut 3

#
#  pair_modify shift yes adds a constant to the potential such

#  that E(r_cut)=0. Forces remains unchanged.
#

pair_modify     shift yes

#
#  pair_coeff for lj/cut, specify 4:
#    * atom type interacting with
#    * atom type
#    * epsilon (energy units)
#    * sigma (distance units)
#

pair_coeff      1 1 1.0 1.0
###################################################################

###################################################################
# Pair interaction between non-bonded atoms
#
#  soft potential, for PUSHING apart overlapping atoms
#  potential E=A*(1 + cos(pi*r/r_c))
#
#  1.12246 = 2^(1/6) is the cut-off r_c

#pair_style     soft 1.12246152962189

#
#  pair_coeff for soft, specify 3:
#    * atom type interacting with
#    * atom type
#    * A
#
#

#pair_coeff      1 1 100.0
###################################################################

###################################################################
# Pair interaction between bonded atoms
#
# Fene potential + Lennard Jones 12-6:

#
#  E= - 0.5 K R0^2 ln[ 1- (r/R0)^2]
#     + 4epsilon[ (sigma/r)^12 - (sigma/r)^6] + epsilon
#

bond_style   fene


#
# For style fene, specify:
#   * bond type
#   * K (energy/distance^2)
#   * R0 (distance)
#   * epsilon (energy)  (LJ component)
#   * sigma (distance)  (LJ component)
#


special_bonds fene #<=== I M P O R T A N T (new command)
Finding 1-2 1-3 1-4 neighbors ...
  special bond factors lj:    0        1        1       
  special bond factors coul:  0        1        1       
     2 = max # of 1-2 neighbors
     6 = max # of special neighbors
  special bonds CPU = 0.000 seconds

bond_coeff   1   30   2   1.0   1.0


###################################################

###################################################################
# Pair interaction between bonded atoms
#
# Harmonic potential:
#
#  E= K * (R-R0)^2
#

#bond_style   harmonic

#
# For style harmonic, specify:
#   * bond type
#   * K (energy/distance^2)
#   * R0 (distance)
#

#bond_coeff   1   60.0   1.0
#bond_coeff   2   harmonic 0.1   1.0

###################################################
compute 1 all gyration
variable rog equal c_1
#compute 2 all coord/atom cutoff 1.1

#dump 2 all custom 10000 contact_number.dump id c_2


###
# Set up fixes
###
thermo_style   custom   step  temp enthalpy c_1
fix 1 all nve   ###NVE ensemble

fix 2 all   langevin   1.0 1.0 1.0  100103   ###Langevin integrator Tstart Tstop 1/friction rndseed


##### Sample thermodynamic info  (temperature, energy, pressure, etc.) #####
thermo 1000









############################################################################

###
# set timestep of integrator

timestep 0.01

###
# run integration for a number of steps
###
#run 0
#variable r equal c_1
#if "$r < 63.1" then "quit 1"

# lj potential minimum, cause molecule to explore
run 100000
Generated 0 of 0 mixed pair_coeff terms from geometric mixing rule
Last active /omp style is angle_style cosine/omp
Neighbor list info ...
  update: every = 1 steps, delay = 1 steps, check = yes
  max neighbors/atom: 2000, page size: 100000
  master list distance cutoff = 5.1224615
  ghost atom cutoff = 5.1224615
  binsize = 2.5612308, bins = 781 781 781
  1 neighbor lists, perpetual/occasional/extra = 1 0 0
  (1) pair lj/cut/omp, perpetual
      attributes: half, newton on, omp
      pair build: half/bin/newton/omp
      stencil: half/bin/3d
      bin: standard
WARNING: Communication cutoff 5.12246152962189 is shorter than a bond length based estimate of 5.455. This may lead to errors. (src/comm.cpp:723)
Per MPI rank memory allocation (min/avg/max) = 939.7 | 940.3 | 940.9 Mbytes
   Step          Temp         Enthalpy         c_1      
         0   0              13.414597      275.00021    
      1000   0.99508301     18.645559      275.06631    
      2000   1.0019494      18.498214      274.74762    
      3000   1.0141457      18.538512      274.26313    
      4000   0.95386053     18.789435      274.25754    
      5000   0.9866492      19.310671      273.99609    
      6000   0.95761612     19.018549      273.76949    
      7000   0.99000336     19.550189      273.46984    
      8000   0.99997139     19.195334      273.34305    
      9000   1.0235555      19.119482      273.05882    
     10000   0.97426398     18.709127      272.94662    
     11000   0.97581008     19.066983      272.78328    
     12000   0.96937905     19.222051      272.69871    
     13000   0.97248773     19.123433      272.64561    
     14000   1.0422524      19.20516       272.34315    
     15000   1.0429856      19.01651       272.11068    
     16000   1.0277288      19.40965       271.89728    
     17000   0.95923633     19.272241      271.72232    
     18000   1.0271097      18.759936      271.5128     
     19000   0.96867224     19.091008      271.42199    
     20000   1.0212971      18.996039      271.31363    
     21000   0.98201171     18.765655      271.23873    
     22000   0.97197115     18.687971      270.8478     
     23000   1.0098987      19.279507      270.59176    
     24000   1.0391274      19.011632      270.36489    
     25000   0.97154646     19.359286      270.05521    
     26000   1.0213295      19.363267      269.61772    
     27000   1.0623192      19.750205      269.26316    
     28000   0.97471669     18.974304      269.2981     
     29000   0.99051617     18.886529      269.40628    
     30000   0.99298125     18.815944      269.23518    
     31000   0.99976214     18.538112      269.20429    
     32000   0.97643417     18.653768      269.1269     
     33000   0.97616101     19.133247      268.97209    
     34000   1.0019743      19.131402      268.86834    
     35000   0.98383815     19.093834      268.35068    
     36000   0.99290853     19.226491      268.1737     
     37000   0.99819743     19.230421      268.07124    
     38000   1.0215196      19.230573      267.91289    
     39000   0.99741814     19.063904      267.85068    
     40000   1.0186311      19.342519      267.71649    
     41000   1.0246455      18.796013      267.64063    
     42000   1.0124076      19.667217      267.44579    
     43000   1.023901       19.238532      267.23507    
     44000   0.9746185      19.133891      267.12835    
     45000   0.97953889     18.985819      267.05784    
     46000   0.98691518     19.260936      266.75051    
     47000   0.99638353     19.511254      266.65232    
     48000   1.0055842      18.989658      266.46479    
     49000   0.99281739     18.7691        266.21938    
     50000   0.98316175     19.000944      265.90753    
     51000   1.0114381      19.31322       265.74586    
     52000   1.0371879      19.533627      265.55857    
     53000   1.0208945      19.443941      265.42975    
     54000   0.9804033      19             265.38967    
     55000   1.0083321      19.222218      265.36751    
     56000   0.97548093     19.187993      265.16328    
     57000   1.0334477      19.83322       265.03495    
     58000   1.0385955      19.853725      264.76458    
     59000   0.97396222     19.335784      264.69993    
     60000   0.98090878     19.421315      264.39736    
     61000   0.99301055     19.6223        264.05066    
     62000   1.0058725      19.02815       263.76464    
     63000   1.0180305      19.456014      263.49692    
     64000   0.99249383     19.113729      263.35336    
     65000   1.0173822      19.186518      263.10195    
     66000   0.99255187     19.328625      262.7225     
     67000   0.98835449     18.982875      262.49635    
     68000   0.99313545     19.202037      262.41843    
     69000   1.01803        19.107367      262.33736    
     70000   0.98332898     19.188634      262.35856    
     71000   0.99464273     19.331139      262.2941     
     72000   1.0098377      19.464471      262.2537     
     73000   0.98307978     19.169761      262.0021     
     74000   1.0326567      19.637107      262.04953    
     75000   0.99194471     19.377132      262.26285    
     76000   1.0067301      19.25634       262.1895     
     77000   1.0032948      19.189665      261.95641    
     78000   1.0122786      19.562624      261.77811    
     79000   1.0132213      19.210742      261.68472    
     80000   0.99006816     19.064725      261.60554    
     81000   0.97151765     19.263177      261.59684    
     82000   0.98608949     19.597983      261.51784    
     83000   1.0291161      19.491348      261.3272     
     84000   1.056492       19.32756       261.1928     
     85000   0.98159522     19.238378      261.24       
     86000   0.99339943     19.555192      261.12903    
     87000   1.0240246      19.587284      261.06253    
     88000   0.99742174     19.216422      261.11869    
     89000   1.0216103      18.968024      261.21458    
     90000   1.0486518      19.531402      261.09848    
     91000   0.98133641     19.37393       260.86732    
     92000   0.99989646     19.159016      260.63076    
     93000   1.0104272      19.613903      260.43941    
     94000   0.98509041     19.581222      260.32319    
     95000   0.99854441     19.525542      259.99251    
     96000   1.0114784      19.389152      259.79091    
     97000   0.98629811     19.564497      259.77653    
     98000   0.99508572     19.312664      259.69413    
     99000   1.0061941      19.497937      259.57172    
    100000   1.0115446      19.184768      259.30299    
Loop time of 175.075 on 4 procs for 100000 steps with 1100 atoms

Performance: 493504.054 tau/day, 571.185 timesteps/s
105.3% CPU use with 2 MPI tasks x 2 OpenMP threads

MPI task timing breakdown:
Section |  min time  |  avg time  |  max time  |%varavg| %total
---------------------------------------------------------------
Pair    | 0.67522    | 0.68174    | 0.68826    |   0.8 |  0.39
Bond    | 1.3346     | 1.4705     | 1.6064     |  11.2 |  0.84
Neigh   | 167.11     | 167.11     | 167.11     |   0.0 | 95.45
Comm    | 1.8949     | 1.9751     | 2.0552     |   5.7 |  1.13
Output  | 0.2274     | 0.23029    | 0.23318    |   0.6 |  0.13
Modify  | 2.4832     | 2.8067     | 3.1301     |  19.3 |  1.60
Other   |            | 0.7963     |            |       |  0.45

Nlocal:            550 ave         636 max         464 min
Histogram: 1 0 0 0 0 0 0 0 0 1
Nghost:          486.5 ave         537 max         436 min
Histogram: 1 0 0 0 0 0 0 0 0 1
Neighs:           2628 ave        3283 max        1973 min
Histogram: 1 0 0 0 0 0 0 0 0 1

Total # of neighbors = 5256
Ave neighs/atom = 4.7781818
Ave special neighs/atom = 1.9981818
Neighbor list builds = 1060
Dangerous builds = 0

# Replace lj potential, now collapse
pair_style      lj/cut 3

# Cutoff simul when gyration under 5
# Variable created with equal requires v_ + 'name'
fix 3 all halt 1000 v_rog < 5

run 5000000
Generated 0 of 0 mixed pair_coeff terms from geometric mixing rule
Last active /omp style is angle_style cosine/omp
Per MPI rank memory allocation (min/avg/max) = 939.7 | 940.3 | 940.9 Mbytes
   Step          Temp         Enthalpy         c_1      
    100000   1.0115446      18.756276      259.30299    
    101000   1.0291964      18.957529      259.10798    
    102000   0.99993774     19.101528      259.00618    
    103000   1.0195238      18.921617      258.73031    
    104000   0.97805227     18.962544      258.5329     
    105000   1.0002261      18.617157      258.21829    
    106000   1.0161552      18.449573      258.10062    
    107000   1.0140014      19.455436      257.95832    
    108000   1.0102338      19.281399      257.82       
    109000   1.0024222      18.875249      257.67355    
    110000   1.0207967      18.950437      257.47362    
    111000   1.0241928      19.002266      257.39451    
    112000   0.97970517     18.79736       257.41395    
    113000   0.97063538     18.759405      257.44533    
    114000   0.9590679      18.582131      257.33666    
    115000   0.97997352     18.833607      257.36525    
    116000   1.0156624      18.896539      257.37688    
    117000   1.0346397      18.93579       257.06832    
    118000   0.97750037     19.159927      256.87881    
    119000   1.031238       19.475976      256.67853    
    120000   0.95889496     18.710792      256.57682    
    121000   0.9754717      19.010534      256.38725    
    122000   1.0173469      19.007342      256.1086     
    123000   1.0099865      18.73434       256.02909    
    124000   1.0374626      19.088707      255.79583    
    125000   1.0154516      18.89819       255.47184    
    126000   1.0371257      19.350419      255.68205    
    127000   1.0615687      19.651021      255.69774    
    128000   0.9621757      18.978682      255.56518    
    129000   0.96780169     18.606094      255.24994    
    130000   1.0380227      18.723369      255.04108    
    131000   0.94629779     18.675978      254.86763    
    132000   0.96679378     18.979192      254.84547    
    133000   1.0167523      19.155834      254.59871    
    134000   1.027667       19.287884      254.44482    
    135000   1.0250457      19.192934      254.48132    
    136000   1.0425678      19.100113      254.28058    
    137000   1.0397654      19.204472      254.02435    
    138000   0.9614049      18.713396      253.85124    
    139000   0.98905278     18.570801      253.78772    
    140000   0.9987691      18.680938      253.66216    
    141000   0.99358286     19.289806      253.58873    
    142000   0.99618444     19.20026       253.4197     
    143000   1.0218979      18.666978      253.05026    
    144000   0.9725095      18.78388       252.7595     
    145000   0.9949086      19.000529      252.93116    
    146000   0.9869322      19.294235      252.87898    
    147000   0.97328077     19.107395      252.67858    
    148000   0.93981254     19.244007      252.42515    
    149000   1.019682       18.944968      252.20356    
    150000   0.9596411      18.697885      251.98411    
    151000   1.022466       19.050944      251.77884    
    152000   1.0213278      19.106781      251.44918    
    153000   0.96556961     19.437057      251.25878    
    154000   1.0365387      18.97776       251.17582    
    155000   0.99056318     19.312672      251.00335    
    156000   1.0280708      19.580001      251.04309    
    157000   1.0210251      18.96718       250.87065    
    158000   0.97854671     18.616539      250.8746     
    159000   1.0169092      19.06118       250.81505    
    160000   1.0111304      19.248102      250.67116    
    161000   0.97912313     18.985978      250.58683    
    162000   1.0025796      19.185193      250.56852    
    163000   0.98280898     18.89659       250.34364    
    164000   1.0107299      19.156294      250.30288    
    165000   1.0136501      19.311916      250.10402    
    166000   1.0027227      19.023889      250.08271    
    167000   0.9920936      19.240338      249.97219    
    168000   1.0020584      19.252337      249.85799    
    169000   1.0273955      19.305485      249.78527    
    170000   0.99411766     19.324293      249.91189    
    171000   0.98090997     18.409588      249.98599    
    172000   0.99223342     18.757666      249.91937    
    173000   1.006072       19.067613      249.99575    
    174000   1.0391288      18.857158      249.75476    
    175000   1.0191315      18.869329      249.69891    
    176000   0.99478982     19.421167      249.57859    
    177000   1.0353021      19.15311       249.60132    
    178000   1.0030505      19.07486       249.55954    
    179000   0.97923712     19.264117      249.35505    
    180000   0.98803636     18.913425      248.97837    
    181000   1.0314086      18.969217      248.98963    
    182000   1.0167865      18.849648      249.099      
    183000   1.0015865      18.850607      248.99442    
    184000   0.99940458     18.668483      248.702      
    185000   1.0130682      19.017785      248.54805    
    186000   1.0071698      19.114705      248.23869    
    187000   0.9724263      18.78249       248.32671    
    188000   1.0157493      19.459646      248.12899    
    189000   1.0182128      19.009         248.16419    
    190000   1.037868       19.379781      248.06611    
    191000   1.0438311      19.270685      247.79915    
    192000   0.99180436     19.089444      247.70049    
    193000   0.98621442     18.786033      247.51853    
    194000   0.96847803     18.858519      247.03       
    195000   1.0380755      19.58057       246.8576     
    196000   0.95757495     18.893714      246.88209    
    197000   0.98413539     19.246705      246.89051    
    198000   1.001768       19.161367      246.73124    
    199000   0.9885611      18.944502      246.47419    
    200000   1.0304375      19.492815      246.48333    
    201000   0.95083291     18.742189      246.20715    
    202000   0.95358235     19.023278      245.93824    
    203000   1.0230463      19.162381      245.8818     
    204000   0.98758666     19.106961      245.74001    
    205000   0.99287395     19.266101      245.6343     
    206000   1.0076553      18.552365      245.40389    
    207000   0.99209927     19.194533      245.31078    
    208000   0.98704056     18.750182      245.12887    
    209000   1.0080278      19.017458      244.97547    
    210000   1.0186808      18.542906      244.6679     
    211000   0.97857858     19.115053      244.44389    
    212000   1.0184077      18.738741      244.3193     
    213000   0.98193911     18.808946      244.15061    
    214000   0.96835005     18.912203      244.09659    
    215000   0.94562384     18.944562      244.06712    
    216000   0.9955996      19.858333      243.98187    
    217000   1.0339399      18.884247      244.00173    
    218000   0.99596703     18.643549      243.8012     
    219000   0.98688053     19.478706      243.71707    
    220000   1.0159958      19.153735      243.68475    
    221000   1.0266333      19.173334      243.51878    
    222000   0.97035076     19.224052      243.4488     
    223000   1.0186185      19.042561      243.36461    
    224000   1.0234418      19.333123      243.24734    
    225000   0.99241949     19.132512      243.27891    
    226000   1.0111438      19.316222      243.24585    
    227000   1.0202958      19.000338      243.08459    
    228000   1.0132492      19.342428      242.94581    
    229000   0.96553965     18.856429      242.75631    
    230000   0.97131086     19.043014      242.66517    
    231000   0.99812637     19.129078      242.64935    
    232000   0.9683098      18.571125      242.50954    
    233000   1.0215671      19.617713      242.17857    
    234000   0.98578371     19.348342      242.05928    
    235000   1.0148376      18.542551      242.00475    
    236000   1.0501299      19.302953      242.00276    
    237000   0.98930431     19.39218       241.98921    
    238000   1.0115579      18.772219      242.05276    
    239000   0.97028256     18.744919      241.99407    
    240000   0.98203966     19.149525      241.98359    
    241000   0.99157792     18.689483      242.00424    
    242000   0.98500684     18.681326      241.85934    
    243000   0.99786798     19.159679      241.61035    
    244000   0.99267302     18.885594      241.39828    
    245000   1.0147976      19.53206       241.35026    
    246000   1.0310802      19.282294      241.32442    
    247000   0.9828485      18.889272      241.31235    
    248000   0.9806602      19.149601      241.22102    
    249000   1.0373329      19.032712      241.28595    
    250000   0.99129423     18.785356      241.23264    
    251000   1.0060899      18.793429      241.02151    
    252000   0.98565562     18.735067      240.79472    
    253000   1.0456875      18.553811      240.54848    
    254000   1.0147295      19.018339      240.30406    
    255000   1.0140201      19.1268        239.91525    
    256000   0.98048521     18.972003      239.54594    
    257000   0.96480698     19.468475      239.64872    
    258000   0.99976117     18.908857      239.70951    
    259000   0.9878093      19.102152      239.73493    
    260000   0.99611145     18.69187       239.64347    
    261000   0.96777262     19.263826      239.44703    
    262000   1.0148888      19.428117      239.50138    
    263000   0.98747424     19.463678      239.20712    
    264000   1.0173533      18.862857      238.84825    
    265000   0.94076979     19.139783      238.65816    
    266000   1.0002514      19.441031      238.61183    
    267000   0.95313429     19.040834      238.51469    
    268000   0.98211979     18.668028      238.44752    
    269000   1.0439146      18.827637      238.56688    
    270000   1.0245585      19.093513      238.49823    
    271000   1.0518238      19.361083      238.48461    
    272000   1.0288506      18.883251      238.36474    
    273000   0.97284187     19.455348      238.24597    
    274000   0.97412071     18.938213      238.06566    
    275000   1.0019836      18.508458      238.01699    
    276000   0.97898469     19.240124      237.84892    
    277000   0.99071431     19.037714      237.76197    
    278000   0.98965914     18.843894      237.68827    
    279000   1.0002421      18.705007      237.51768    
    280000   1.0058207      19.460961      237.09025    
    281000   1.0092654      18.653073      236.94734    
    282000   0.98280435     18.506694      236.71449    
    283000   1.0026311      19.151974      236.53157    
    284000   0.99876859     19.02893       236.23186    
    285000   1.004037       18.745174      236.15074    
    286000   0.97788869     19.189846      236.17099    
    287000   1.0198954      19.335392      236.18032    
    288000   1.0178167      19.065248      236.22543    
    289000   1.0329747      19.109018      235.98002    
    290000   1.0531509      19.132166      235.71249    
    291000   0.9781171      18.570001      235.60386    
    292000   1.021416       19.22571       235.51137    
    293000   0.98734243     18.544428      235.42926    
    294000   0.97716932     18.859325      235.3243     
    295000   0.95520471     18.641486      235.28786    
    296000   0.97878096     19.253317      235.27179    
    297000   0.9797161      19.074226      235.32245    
    298000   1.0234129      19.511485      235.27077    
    299000   1.0228349      19.275072      235.24451    
    300000   0.94950154     18.677262      235.22271    
    301000   1.0170259      18.618736      235.21365    
    302000   1.0256284      18.989297      235.04882    
    303000   1.0140087      19.229008      234.98222    
    304000   0.9929153      18.530606      234.96005    
    305000   1.0159076      18.553018      234.783      
    306000   0.99949045     19.242504      234.83889    
    307000   1.0054202      19.189787      234.80074    
    308000   0.99818066     19.261254      234.69382    
    309000   1.002129       19.277326      234.4205     
    310000   0.98375591     19.45065       234.15253    
    311000   0.96791624     18.835328      233.98243    
    312000   1.0140098      18.730738      233.92468    
    313000   1.0296629      19.187244      234.17939    
    314000   0.99570811     18.343587      234.10821    
    315000   1.0163988      18.745088      234.01812    
    316000   1.0104744      18.823503      233.78493    
    317000   0.99769562     19.440217      233.53024    
    318000   1.0016834      19.171871      233.46337    
    319000   1.0004218      18.592546      233.15406    
    320000   1.0422886      19.287062      232.98144    
    321000   0.96568937     18.781401      232.74145    
    322000   1.0137033      18.672041      232.68186    
    323000   1.0246037      19.155379      232.41393    
    324000   0.96999797     18.952841      232.51528    
    325000   0.94168474     18.921244      232.65896    
    326000   1.0260601      18.852004      232.52765    
    327000   0.98038445     18.830847      232.11953    
    328000   1.0055865      18.714771      232.17914    
    329000   1.0177597      19.113016      232.18521    
    330000   0.99601872     19.626076      232.26705    
    331000   0.99564779     19.429164      231.99673    
    332000   0.96376848     19.321137      231.73701    
    333000   0.98721939     18.704678      231.75523    
    334000   0.99370746     18.466888      231.80072    
    335000   0.96429136     18.872988      231.8296     
    336000   0.94069532     18.932014      231.70182    
    337000   1.0117325      19.087443      231.60528    
    338000   0.99176992     18.902094      231.45642    
    339000   1.0155936      19.048529      231.29839    
    340000   0.97137325     19.048458      231.04423    
    341000   1.0199559      18.979768      230.91444    
    342000   0.99724598     18.956537      230.87909    
    343000   1.0001354      18.748051      230.69608    
    344000   1.011434       18.778628      230.8161     
    345000   0.96967028     19.118392      230.6544     
    346000   1.0204672      19.206189      230.63232    
    347000   1.0001572      19.200869      230.53499    
    348000   0.98609424     18.875712      230.31285    
    349000   0.97434188     18.703889      230.16049    
    350000   0.99120539     19.053207      230.11365    
    351000   0.99740413     19.006175      229.83425    
    352000   0.96188288     18.849622      229.72628    
    353000   0.99447782     19.087194      229.5359     
    354000   0.98813681     19.228456      229.30488    
    355000   1.0260053      18.622871      229.40686    
    356000   1.0144343      18.929605      229.23282    
    357000   0.95474989     18.592631      229.01428    
    358000   0.96178911     18.835887      228.98086    
    359000   1.0095821      18.863608      228.88064    
    360000   0.96323321     18.863011      228.89143    
    361000   0.99387837     18.855708      228.9642     
    362000   1.0250733      19.082281      229.09475    
    363000   1.0093915      19.260392      228.94655    
    364000   1.0004696      18.85633       228.72002    
    365000   1.0272968      19.71312       228.55746    
    366000   1.0087172      19.063914      228.40503    
    367000   0.96705696     18.683901      228.28449    
    368000   1.0192074      19.178348      228.11798    
    369000   0.97786396     19.049704      228.13927    
    370000   1.0189824      18.870451      228.34494    
    371000   1.0008615      18.640818      228.19361    
    372000   0.99099997     18.820005      227.96909    
    373000   1.0334703      19.326541      227.9919     
    374000   0.95889323     18.3508        227.64087    
    375000   1.0061127      18.924791      227.44127    
    376000   0.97225129     19.119621      227.19946    
    377000   0.98866714     19.309927      227.21987    
    378000   1.0248386      19.268585      227.10911    
    379000   0.99946046     18.810804      226.96029    
    380000   1.0053533      18.927703      226.77278    
    381000   0.98416715     18.926705      226.78695    
    382000   1.0105567      19.091679      226.72316    
    383000   1.0168462      18.505754      226.6732     
    384000   0.97395124     18.935154      226.4812     
    385000   0.9655391      18.556534      226.64672    
    386000   1.0315525      18.890847      226.47001    
    387000   0.99356918     18.531345      226.14051    
    388000   0.99969686     18.667362      225.89877    
    389000   0.97681901     19.081266      225.71998    
    390000   1.0318698      18.873673      225.65683    
    391000   0.9874033      18.699078      225.40154    
    392000   1.010449       19.086903      225.22938    
    393000   0.9771677      18.867541      225.02577    
    394000   0.99538861     18.903117      225.1125     
    395000   0.99992341     18.924935      225.13249    
    396000   1.0220805      18.422385      225.397      
    397000   1.0021395      18.633119      225.49227    
    398000   0.9681127      18.870065      225.21555    
    399000   0.9839305      18.994885      225.16249    
    400000   1.0662436      18.936302      225.17292    
    401000   1.0115319      19.007615      224.90569    
    402000   1.0290397      18.721355      224.91507    
    403000   0.99348265     18.776996      224.63421    
    404000   1.036138       19.141816      224.57415    
    405000   1.0342982      19.493351      224.43363    
    406000   0.99515553     18.906044      224.21488    
    407000   0.97015377     18.923402      223.98522    
    408000   0.99690528     18.834672      223.94915    
    409000   1.0071282      18.932054      223.66196    
    410000   0.99654452     18.874443      223.26837    
    411000   1.0236944      19.206257      223.24861    
    412000   0.99401674     18.74874       223.19001    
    413000   0.99262784     18.996933      222.93668    
    414000   1.0230519      19.273081      222.7799     
    415000   1.0140859      19.083341      222.89989    
    416000   1.0086994      19.052346      222.84759    
    417000   0.96760053     18.717471      222.92628    
    418000   1.0177906      19.007439      223.21748    
    419000   0.97261453     18.763989      222.98761    
    420000   1.0151375      18.705258      223.06486    
    421000   0.99310689     18.692411      223.00374    
    422000   1.0342532      18.980213      222.9939     
    423000   1.0528849      19.236361      222.82414    
    424000   1.0710919      19.530596      222.76008    
    425000   1.004372       18.52724       222.55391    
    426000   1.0131491      18.538531      222.24354    
    427000   0.97481647     19.082631      222.05278    
    428000   1.0068618      19.503044      221.92393    
    429000   1.0148907      19.039409      221.80849    
    430000   0.96388019     18.907569      221.60859    
    431000   0.9612254      19.109924      221.46584    
    432000   0.94177911     18.638788      221.31996    
    433000   0.94562829     18.305425      221.33149    
    434000   0.96821579     18.767946      221.10319    
    435000   1.0331846      18.952296      221.01306    
    436000   1.0184622      19.140547      220.97292    
    437000   0.97695428     18.782608      220.78495    
    438000   0.96791714     18.90885       220.64081    
    439000   1.033988       18.802478      220.63099    
    440000   0.99775702     19.071394      220.42498    
    441000   1.0258116      19.066087      220.20652    
    442000   0.99472648     18.679747      220.09777    
    443000   1.0193633      19.1628        219.88718    
    444000   1.0114161      19.05638       219.60762    
    445000   1.0054625      18.762418      219.56228    
    446000   0.99223517     18.769724      219.53993    
    447000   0.9929299      19.034229      219.52591    
    448000   0.99404901     18.979688      219.40163    
    449000   0.95576624     19.050665      219.05414    
    450000   1.0149032      18.639335      218.95197    
    451000   0.98319802     19.091019      218.88689    
    452000   1.0031556      19.081024      218.77676    
    453000   0.97861818     19.018455      218.77843    
    454000   0.96567503     18.965745      218.56513    
    455000   1.0267289      18.88725       218.49126    
    456000   1.0338001      19.2006        218.2043     
    457000   0.98016341     18.688758      218.06684    
    458000   1.0084941      19.276024      217.89199    
    459000   0.97561538     18.898131      217.67561    
    460000   1.0152482      18.843576      217.74756    
    461000   0.98864589     18.361599      217.51701    
    462000   1.0198452      18.817832      217.25003    
    463000   0.99088149     18.928096      217.05762    
    464000   1.0100533      19.364835      216.91757    
    465000   0.95289458     18.913152      217.00231    
    466000   0.97484639     19.171538      216.87542    
    467000   0.96061478     18.51613       216.92302    
    468000   0.96357031     18.322527      216.85164    
    469000   0.99454101     18.96011       216.77201    
    470000   1.0301254      19.370219      216.60446    
    471000   0.96962747     18.689325      216.48029    
    472000   0.96198913     19.180448      216.47926    
    473000   1.0158471      18.766329      216.22053    
    474000   0.99457291     18.75303       216.08098    
    475000   1.0321539      19.412662      215.85328    
    476000   0.99425308     18.510196      215.79114    
    477000   0.97829579     19.124474      215.96106    
    478000   1.0424127      19.161581      215.85422    
    479000   1.0264419      18.870076      215.73953    
    480000   0.99681544     19.079062      215.55681    
    481000   0.96630306     18.895817      215.51872    
    482000   0.96778623     18.838397      215.09196    
    483000   1.0075038      19.109894      214.8129     
    484000   0.99406057     18.723975      214.76277    
    485000   0.97845078     19.402831      214.68025    
    486000   0.9876974      18.623468      214.6206     
    487000   1.0230221      19.322053      214.63129    
    488000   1.0182389      18.938381      214.7352     
    489000   1.011837       18.855497      214.72119    
    490000   0.99680297     19.084822      214.56018    
    491000   0.98887289     18.781174      214.53287    
    492000   1.0190494      18.572503      214.32605    
    493000   0.98005553     18.60226       214.3642     
    494000   1.0053369      19.255402      214.18318    
    495000   0.99755526     18.880895      214.06908    
    496000   1.0158866      19.307083      214.17223    
    497000   1.0179459      18.366694      214.00615    
    498000   0.99256302     18.561109      213.5931     
    499000   0.96698793     18.672715      213.43032    
    500000   1.0632571      18.997623      213.40234    
    501000   1.0058931      19.174014      213.36738    
    502000   0.96862408     19.18577       213.40346    
    503000   0.98244565     18.751586      213.37492    
    504000   0.99959375     18.690862      213.19397    
    505000   0.96303195     18.940531      212.78934    
    506000   0.96699452     19.087629      212.60619    
    507000   0.98515992     18.692941      212.67314    
    508000   1.0240532      18.96276       212.62873    
    509000   1.0074341      19.428705      212.4604     
    510000   0.99065811     19.174147      212.18774    
    511000   1.0210499      19.207575      211.97352    
    512000   1.0065632      18.504551      211.96178    
    513000   1.0638032      19.088478      211.9135     
    514000   1.015905       18.993727      211.82859    
    515000   0.96942903     18.335765      211.72223    
    516000   1.0184167      18.797158      211.66217    
    517000   1.0145655      18.815492      211.62052    
    518000   0.98034649     18.728277      211.61397    
    519000   0.95889817     18.543122      211.38125    
    520000   0.98296285     18.441093      211.34812    
    521000   0.98812681     19.004767      211.02041    
    522000   1.0002344      19.241307      210.73983    
    523000   0.96117804     18.854301      210.58849    
    524000   0.98447413     18.889089      210.42096    
    525000   0.99916115     18.980524      210.42739    
    526000   1.0227984      18.63042       210.29673    
    527000   0.99998385     18.803342      209.97672    
    528000   1.0179621      18.84428       209.82394    
    529000   0.97307946     18.432586      209.98144    
    530000   1.0136495      18.979037      209.86463    
    531000   1.0295489      19.128495      209.56765    
    532000   1.0125821      19.046929      209.60029    
    533000   1.0208697      19.189503      209.59883    
    534000   0.99086132     18.425299      209.52554    
    535000   0.99083535     18.678727      209.50628    
    536000   0.97620215     19.210267      209.18806    
    537000   1.0111354      18.754533      209.00577    
    538000   1.0118803      18.728218      208.70252    
    539000   1.0279251      18.91067       208.6359     
    540000   1.0068235      18.762835      208.50362    
    541000   0.99115689     19.045929      208.38888    
    542000   0.99433644     19.580076      208.39872    
    543000   1.0108604      19.037044      208.60543    
    544000   0.99728224     19.172042      208.42456    
    545000   1.0314728      19.012798      208.31384    
    546000   0.99916946     18.966319      208.31817    
    547000   0.99188184     18.634096      208.17074    
    548000   0.95938674     18.823414      208.29276    
    549000   1.0292989      18.866066      208.08537    
    550000   0.98177916     19.114057      208.01761    
    551000   1.0168127      18.942838      207.86533    
    552000   0.96746567     18.759313      207.87012    
    553000   0.99229291     19.146258      207.89248    
    554000   1.0244947      18.846642      207.98605    
    555000   1.0015535      18.424851      207.70937    
    556000   1.0013581      18.995162      207.65243    
    557000   1.0138837      19.473928      207.46944    
    558000   1.0235076      18.881971      207.37141    
    559000   1.01524        19.09899       207.09816    
    560000   0.97570308     18.653407      206.9467     
    561000   0.99241273     18.6703        206.75393    
    562000   1.0033626      18.692329      206.63304    
    563000   0.99106379     19.448552      206.60824    
    564000   0.99826164     18.268338      206.3513     
    565000   1.0249399      18.434123      206.31539    
    566000   0.97849449     18.60483       206.34521    
    567000   1.0132228      18.843602      206.2755     
    568000   1.0050605      18.912165      206.19498    
    569000   1.0115792      19.033084      206.27097    
    570000   1.0249732      18.646027      206.32206    
    571000   0.95089477     18.332457      206.27267    
    572000   1.0091796      18.567669      205.90743    
    573000   1.0065969      18.823692      205.62015    
    574000   0.9342637      18.68155       205.61759    
    575000   0.98487875     18.159613      205.57897    
    576000   0.97034333     18.669149      205.47067    
    577000   0.97351316     18.762613      205.24621    
    578000   1.0589983      18.730414      204.89695    
    579000   1.0171135      19.418238      204.6815     
    580000   1.0451741      18.485278      204.51301    
    581000   0.99398605     18.556181      204.40453    
    582000   0.99552933     18.869836      204.23397    
    583000   0.99333654     18.757104      204.0968     
    584000   0.98418701     18.820623      203.94174    
    585000   0.96029753     18.784218      203.88139    
    586000   0.95992933     18.794842      203.91384    
    587000   0.97153602     19.068558      204.02872    
    588000   1.0480266      18.830937      203.78079    
    589000   1.0286048      19.164952      203.82106    
    590000   0.9551857      18.745155      203.68125    
    591000   0.99915433     18.752593      203.61237    
    592000   0.95796203     18.815281      203.68284    
    593000   1.0133166      18.918204      203.71715    
    594000   1.0124261      19.122091      203.59043    
    595000   0.99035307     18.828571      203.35483    
    596000   0.98787098     19.067543      203.38046    
    597000   1.016565       19.478625      203.33322    
    598000   0.98449473     18.468897      203.29656    
    599000   1.0164926      18.876808      203.13254    
    600000   0.99083233     18.981557      203.01956    
    601000   0.98779673     18.747581      203.02253    
    602000   1.0032961      18.387034      202.76314    
    603000   0.95604195     18.846638      202.61674    
    604000   1.0102282      19.013403      202.56664    
    605000   0.99923129     18.900729      202.45175    
    606000   0.99081087     18.669605      202.35972    
    607000   1.0129689      18.573257      202.09924    
    608000   1.0293478      18.959917      202.01915    
    609000   0.97243985     19.046763      201.79269    
    610000   0.99709309     18.778132      201.78243    
    611000   1.0254215      18.564349      201.70595    
    612000   1.0172585      18.593705      201.80418    
    613000   0.97869112     19.086182      201.66758    
    614000   0.9980977      18.922242      201.50342    
    615000   0.98046723     18.444886      201.3651     
    616000   1.0100363      18.934305      201.47325    
    617000   1.0290394      19.435136      201.41878    
    618000   0.98532644     18.663458      201.18733    
    619000   1.0080311      18.848967      201.01934    
    620000   0.98546002     18.435299      200.98493    
    621000   0.97676473     18.637316      200.82406    
    622000   0.96746408     18.816104      200.78378    
    623000   0.98094357     18.758929      200.66542    
    624000   0.98697839     19.058115      200.65214    
    625000   0.99465184     19.232551      200.43637    
    626000   0.97173964     19.113898      200.64162    
    627000   1.0024137      18.625152      200.51637    
    628000   1.0121178      19.238089      200.47153    
    629000   0.97463637     19.056234      200.47596    
    630000   1.0024224      18.996934      200.41145    
    631000   1.0130645      18.991259      200.5932     
    632000   0.99192704     19.052696      200.61474    
    633000   0.99621687     18.673687      200.68401    
    634000   1.0023404      19.166194      200.59056    
    635000   0.99920699     18.606613      200.48626    
    636000   0.98108606     18.911024      200.37357    
    637000   1.0068692      18.749872      200.01208    
    638000   0.9518159      18.809999      199.94965    
    639000   0.99770237     18.919494      199.99644    
    640000   1.0077696      18.793445      199.92105    
    641000   0.97172558     18.667848      199.97684    
    642000   1.0188145      18.906449      199.73681    
    643000   0.98523432     18.920149      199.6881     
    644000   0.99206229     18.333656      199.57601    
    645000   1.0120559      18.674742      199.42835    
    646000   1.0038418      18.309605      199.23691    
    647000   0.99947372     19.115264      199.37522    
    648000   0.97344237     18.902157      199.22195    
    649000   0.98660539     18.552027      199.29768    
    650000   1.0503892      19.294254      199.24557    
    651000   0.99496822     18.885862      199.39377    
    652000   0.9876093      19.157897      199.17508    
    653000   0.98144018     18.91159       199.15434    
    654000   1.0147816      18.407334      198.99985    
    655000   1.03552        18.263285      198.99611    
    656000   0.99439536     18.440643      198.81427    
    657000   1.0047698      19.050744      198.61407    
    658000   1.0006103      18.930505      198.42408    
    659000   1.0094301      19.180076      198.45312    
    660000   0.9929595      18.516374      198.55613    
    661000   0.99717277     18.945906      198.55036    
    662000   0.99851172     18.110115      198.35659    
    663000   1.0049331      19.454793      198.25356    
    664000   0.98268301     19.163022      198.34356    
    665000   1.0487107      19.241876      198.24419    
    666000   1.0203497      18.441511      198.40497    
    667000   1.0200645      19.039269      198.35       
    668000   1.0075379      18.601788      198.11073    
    669000   1.0078369      18.75877       198.06283    
    670000   0.93634404     19.022115      198.04553    
    671000   1.0221363      19.266153      197.86586    
    672000   1.0322949      18.720098      197.60475    
    673000   0.98510297     18.313378      197.49116    
    674000   1.0078599      18.759287      197.59791    
    675000   0.98749833     18.630543      197.47048    
    676000   0.97878732     18.753912      197.38005    
    677000   1.0229245      19.072746      197.42787    
    678000   1.0201961      18.815319      197.2859     
    679000   1.0180748      18.392449      197.08687    
    680000   1.0063769      18.876437      197.27355    
    681000   1.0042935      18.612818      197.34402    
    682000   1.0097198      18.629085      197.23254    
    683000   0.99459454     18.841037      197.11932    
    684000   0.98760041     18.785163      197.00841    
    685000   0.96091649     18.619366      197.12145    
    686000   1.0158539      19.432406      196.80689    
    687000   1.0022493      19.03765       196.76801    
    688000   1.0285713      18.894453      196.6256     
    689000   1.029911       19.149342      196.85815    
    690000   0.98199567     18.740764      196.55385    
    691000   0.99874958     18.769053      196.47103    
    692000   0.98689322     18.649482      196.50769    
    693000   1.0241018      18.596115      196.57303    
    694000   0.99532851     18.627479      196.64011    
    695000   1.0498801      19.09635       196.3472     
    696000   1.0473879      19.328154      196.16662    
    697000   1.0100743      18.606589      196.00512    
    698000   1.0339698      18.68894       195.74643    
    699000   1.0503282      18.996288      195.81698    
    700000   1.0242853      18.766297      195.84917    
    701000   1.0102057      19.075823      195.89002    
    702000   1.0173754      18.893845      196.02536    
    703000   0.9950659      18.865696      195.9225     
    704000   0.98973463     19.108179      196.11519    
    705000   1.006538       18.753468      196.14442    
    706000   0.98902871     18.584111      195.91169    
    707000   1.0074043      18.632531      195.71894    
    708000   1.0216428      18.938656      195.61469    
    709000   0.99299138     19.132443      195.51578    
    710000   1.000626       18.970351      195.55032    
    711000   1.015093       18.963281      195.70498    
    712000   0.94063311     18.399136      195.50836    
    713000   1.0194027      18.866035      195.6943     
    714000   1.0338563      19.308178      195.89722    
    715000   0.98765329     19.166161      195.78889    
    716000   0.98531543     19.228602      196.10231    
    717000   0.98723157     18.844849      196.27121    
    718000   1.0324506      18.900369      196.41579    
    719000   0.99286089     18.797941      196.48095    
    720000   1.0192001      19.239359      196.45236    
    721000   0.98639429     18.968136      196.53622    
    722000   1.0245249      18.992525      196.53752    
    723000   1.0366676      18.66562       196.40645    
    724000   0.98215638     18.528388      196.29927    
    725000   0.99410912     18.247143      196.24722    
    726000   0.99883483     18.707514      196.10637    
    727000   1.0189786      18.619237      196.03559    
    728000   0.98065575     18.433815      196.07711    
    729000   0.92341241     18.499317      195.83583    
    730000   1.0471385      18.580003      195.68685    
    731000   0.99135191     18.822931      195.58746    
    732000   1.0312337      19.084271      195.69915    
    733000   1.0202095      18.925261      195.49472    
    734000   0.98803798     19.058636      195.20191    
    735000   1.0386071      18.610868      195.03384    
    736000   1.0044947      18.387765      194.83525    
    737000   1.0325338      18.97297       194.72664    
    738000   1.0373735      18.666329      194.6362     
    739000   1.0315903      18.849071      194.41382    
    740000   0.9972568      18.353077      194.08261    
    741000   0.9560195      19.256317      193.83639    
    742000   1.0213366      18.644045      193.78037    
    743000   1.0154533      18.59973       193.60201    
    744000   1.0004378      18.992075      193.55356    
    745000   1.010224       18.902497      193.5616     
    746000   1.0096438      18.937822      193.40687    
    747000   0.95118564     18.705979      193.23319    
    748000   1.023154       18.9407        193.00855    
    749000   0.98925834     18.537467      192.82713    
    750000   0.99865464     18.673229      192.79963    
    751000   1.0177488      19.132259      192.67645    
    752000   1.0146633      18.69798       192.79691    
    753000   1.0482955      19.088445      192.74845    
    754000   1.0222271      18.811081      192.72109    
    755000   0.99193576     18.910173      192.81232    
    756000   1.0367501      18.677756      192.76313    
    757000   0.95222474     18.705638      192.70074    
    758000   1.0233919      18.941014      192.54326    
    759000   0.98598401     18.834747      192.38668    
    760000   0.96693742     18.875968      192.55862    
    761000   1.017338       18.701676      192.52369    
    762000   1.0391401      18.899466      192.39784    
    763000   0.97054003     19.057796      192.27959    
    764000   0.97588202     18.934728      192.31472    
    765000   1.0095462      18.384537      192.4887     
    766000   0.99529455     18.176002      192.29572    
    767000   1.0338889      18.915465      192.11382    
    768000   0.96856298     18.879154      192.03946    
    769000   0.98282609     18.411928      191.86363    
    770000   1.0136083      18.645221      191.81355    
    771000   0.9767277      18.5961        191.61077    
    772000   1.0265458      19.370532      191.66404    
    773000   0.95876562     18.931923      191.62338    
    774000   0.99726362     18.663458      191.67933    
    775000   1.0274159      18.730009      191.65482    
    776000   1.0166718      18.7267        191.62768    
    777000   1.025317       18.661908      191.59494    
    778000   0.97693116     18.777106      191.58131    
    779000   1.0157228      19.569506      191.36101    
    780000   1.0526963      18.480843      191.15649    
    781000   0.96945282     18.816795      191.06982    
    782000   1.0016266      18.074761      191.19159    
    783000   0.97888419     18.910925      191.22912    
    784000   0.98878325     18.875405      190.94749    
    785000   0.94029457     18.516373      190.63219    
    786000   1.034044       18.727826      190.57924    
    787000   1.0046063      18.753998      190.32048    
    788000   1.0242818      19.071709      190.36504    
    789000   1.0430379      18.645334      190.30271    
    790000   0.99022505     18.411101      190.19076    
    791000   0.99811499     18.431094      190.07229    
    792000   0.98089939     18.06731       190.12727    
    793000   1.0149309      18.807842      189.98883    
    794000   0.99000589     18.760816      189.7563     
    795000   1.0098058      18.841987      189.65213    
    796000   1.0236204      18.897095      189.69111    
    797000   1.0012684      18.673863      189.4907     
    798000   0.99113105     18.623874      189.3207     
    799000   0.98269455     18.715444      189.23094    
    800000   0.98163061     18.147846      189.1294     
    801000   0.98666503     18.44873       189.07553    
    802000   1.0102062      18.589893      188.86668    
    803000   1.010604       18.359878      188.66493    
    804000   0.97983765     18.350446      188.35612    
    805000   1.0122681      18.678668      188.5063     
    806000   0.97093874     19.027323      188.28301    
    807000   1.0489387      18.962711      188.12171    
    808000   0.97918065     18.407839      188.50287    
    809000   0.95476929     18.684301      188.5422     
    810000   1.023968       18.79464       188.38895    
    811000   1.0162107      18.744172      188.29572    
    812000   0.98527998     18.927921      188.16781    
    813000   1.0730748      18.48107       187.99444    
    814000   0.98443958     18.684747      187.92604    
    815000   0.98142081     18.831937      187.76975    
    816000   0.97544668     18.818098      187.64571    
    817000   1.009717       18.669164      187.45787    
    818000   0.996571       18.759483      187.37735    
    819000   0.99289308     18.585221      187.42932    
    820000   1.0005236      18.897071      187.3632     
    821000   0.97592477     18.550459      187.28998    
    822000   0.96880313     18.803178      187.10484    
    823000   0.98575862     18.474715      186.92045    
    824000   1.037826       18.82591       187.03066    
    825000   1.0061564      18.701651      187.27173    
    826000   0.99389382     18.862386      187.19489    
    827000   1.0165137      18.431008      186.87442    
    828000   0.96722131     18.874198      186.72372    
    829000   0.99895376     18.534178      186.55914    
    830000   1.0246617      18.951064      186.49031    
    831000   0.99485751     18.359789      186.40958    
    832000   0.98966205     18.476607      186.25006    
    833000   0.98469482     19.11388       186.05993    
    834000   1.018493       18.216911      185.83075    
    835000   1.008124       18.520527      185.73082    
    836000   0.96952086     18.74338       185.97153    
    837000   0.95826992     18.479795      185.94999    
    838000   1.0067615      18.927998      185.77515    
    839000   0.98741322     18.57052       185.69469    
    840000   0.99111786     18.787693      185.49459    
    841000   0.93391932     18.69515       185.33848    
    842000   1.0419837      18.907797      184.97215    
    843000   1.0007313      18.970291      184.80148    
    844000   1.0257553      19.218894      184.82027    
    845000   0.96651335     18.566498      184.93668    
    846000   1.0027554      19.062537      184.76954    
    847000   1.0141104      18.901172      184.6568     
    848000   1.0038947      18.737022      184.50061    
    849000   0.95348225     18.281725      184.5004     
    850000   0.98080298     18.880223      184.50886    
    851000   0.97905511     19.089211      184.55115    
    852000   0.99317528     18.899134      184.61916    
    853000   1.0329188      18.677066      184.69118    
    854000   1.0080859      18.754168      184.59005    
    855000   0.994125       18.393929      184.49053    
    856000   1.0010224      18.762546      184.35294    
    857000   0.98383451     18.751418      184.49127    
    858000   0.97164515     18.671939      184.67245    
    859000   1.0291278      18.81163       184.77989    
    860000   1.0148648      18.750697      184.64457    
    861000   0.95901614     18.505237      184.50579    
    862000   0.99025595     19.017566      184.35481    
    863000   0.98461587     18.830024      183.95941    
    864000   0.95193583     18.492542      183.84626    
    865000   0.99891577     17.99769       183.86896    
    866000   0.96836932     19.113684      183.5999     
    867000   1.0393848      18.515404      183.44425    
    868000   0.99439044     18.656831      183.44407    
    869000   0.9822639      18.382112      183.26108    
    870000   0.99970321     19.001274      183.15511    
    871000   0.99245355     18.564826      183.19592    
    872000   1.0052192      18.141465      183.12269    
    873000   0.98911655     18.558674      183.02038    
    874000   0.98381723     19.166813      182.90319    
    875000   0.96821857     18.782439      182.75872    
    876000   1.0223995      18.613818      182.70852    
    877000   0.97299467     18.842821      182.6166     
    878000   1.0387132      19.384303      182.3955     
    879000   1.0105849      19.019833      182.16048    
    880000   0.9999148      18.353455      182.17114    
    881000   0.99560552     18.724625      181.87943    
    882000   0.98873033     18.860644      181.99819    
    883000   0.99936752     18.288296      182.1291     
    884000   0.98192221     18.509722      181.91875    
    885000   0.98803705     18.65453       181.7106     
    886000   0.98837181     18.616296      181.58288    
    887000   1.0002924      18.574481      181.31572    
    888000   1.0296129      18.342549      181.208      
    889000   0.99647537     18.168953      180.96888    
    890000   0.999862       19.020604      180.70449    
    891000   0.99548281     18.443801      180.35915    
    892000   0.97598946     18.742519      180.14132    
    893000   0.98523458     19.106964      179.93018    
    894000   1.0118072      18.884703      179.97258    
    895000   1.0160003      18.762639      179.87613    
    896000   1.0212949      18.591404      179.98178    
    897000   1.0377328      18.853435      179.91908    
    898000   0.98185142     18.696954      179.94083    
    899000   0.97534201     18.213034      179.90522    
    900000   0.99168352     18.187996      179.77822    
    901000   0.99839028     18.782363      179.72738    
    902000   0.97019274     18.659117      179.67608    
    903000   1.0083797      18.987108      179.55614    
    904000   1.0027712      18.466937      179.29692    
    905000   1.0139919      18.467132      179.21418    
    906000   0.97713131     18.6777        179.10737    
    907000   1.0071311      18.470855      178.89927    
    908000   0.99882528     18.684991      178.94291    
    909000   1.0150065      18.787668      179.05639    
    910000   0.98159257     18.897207      178.7759     
    911000   1.01832        18.906151      178.72016    
    912000   0.98008176     18.67171       178.84025    
    913000   1.0272954      18.265316      178.71088    
    914000   0.96961317     18.90066       178.48827    
    915000   0.97354814     18.014271      178.56474    
    916000   1.0132891      18.95788       178.52263    
    917000   1.0006428      18.768852      178.44171    
    918000   0.97652495     18.321649      178.39687    
    919000   1.0119204      18.558082      178.19705    
    920000   1.0085774      18.598321      178.09079    
    921000   1.0130554      18.515979      178.20723    
    922000   1.0351469      18.696916      178.29932    
    923000   1.0154823      18.722786      178.28232    
    924000   0.99677882     18.345602      178.15629    
    925000   1.012403       18.555577      178.12118    
    926000   1.0285833      18.683717      178.28208    
    927000   0.9959014      18.459662      178.42842    
    928000   1.0005801      18.887101      178.40949    
    929000   0.97644219     18.438629      178.39288    
    930000   0.9432281      18.674562      178.14432    
    931000   0.95330032     18.279893      177.99889    
    932000   1.0218702      18.629557      177.74183    
    933000   0.95766118     18.536901      177.56034    
    934000   1.0048868      18.551137      177.73184    
    935000   1.0292137      19.12703       177.73504    
    936000   1.0353606      19.115936      177.56303    
    937000   0.97332809     18.694688      177.47896    
    938000   1.0482149      18.897637      177.53077    
    939000   0.96431165     18.812878      177.58614    
    940000   1.0086301      19.014249      177.46102    
    941000   0.98500981     18.707055      177.48551    
    942000   0.97439394     18.583691      177.49608    
    943000   1.0268186      18.188698      177.41041    
    944000   1.0134417      19.117452      177.3122     
    945000   1.0045257      18.636976      177.32518    
    946000   0.96608472     18.338524      177.20483    
    947000   1.0414587      18.741217      177.20432    
    948000   0.97193673     18.566056      177.14664    
    949000   1.001487       18.933599      177.27193    
    950000   0.97070217     18.851526      177.12336    
    951000   1.0000402      18.856789      177.1041     
    952000   1.0056816      18.261009      177.13125    
    953000   1.027687       18.62351       177.05565    
    954000   1.038876       18.578684      177.02879    
    955000   0.99610681     18.702585      176.92883    
    956000   0.99966364     18.262078      176.82238    
    957000   1.0113026      18.404212      176.69958    
    958000   0.9629278      19.079011      176.3484     
    959000   0.99527122     18.705684      176.13811    
    960000   0.96035724     18.651554      175.85935    
    961000   0.99971147     18.920811      175.70411    
    962000   1.0183431      18.851042      175.61745    
    963000   1.0202638      18.629298      175.62523    
    964000   1.019553       18.715199      175.59896    
    965000   0.98850622     18.950593      175.47266    
    966000   0.97944911     18.054112      175.42429    
    967000   0.98824521     18.413898      175.12114    
    968000   1.0180781      18.945371      175.1092     
    969000   1.02158        18.517606      175.1086     
    970000   0.98809912     18.717741      175.01948    
    971000   1.0145813      18.435199      174.86363    
    972000   0.99389152     18.054941      174.5728     
    973000   0.98724952     18.104121      174.64611    
    974000   0.96949245     18.213654      174.4576     
    975000   0.98345324     18.247362      174.37642    
    976000   1.0334427      18.548502      174.38653    
    977000   0.94528555     18.34174       174.16943    
    978000   1.0156162      18.997627      174.10474    
    979000   1.037942       19.349292      173.97491    
    980000   1.0114875      18.776704      173.86924    
    981000   0.99009978     18.808019      173.68536    
    982000   0.97251878     18.057562      173.53162    
    983000   1.0094105      18.496648      173.31972    
    984000   0.99166185     18.606315      173.42136    
    985000   0.97495552     18.137946      173.30194    
    986000   0.99150761     19.017485      173.2022     
    987000   0.99508049     18.372265      173.18584    
    988000   0.99382377     18.780723      173.26082    
    989000   1.0060402      18.280185      173.42694    
    990000   0.97281569     18.209163      173.32421    
    991000   0.98074053     18.367704      173.18579    
    992000   1.0060775      18.701145      173.32593    
    993000   1.0287111      18.857947      173.06808    
    994000   1.0012161      19.052723      172.98521    
    995000   1.0046671      18.562931      172.94716    
    996000   1.0245713      18.347592      172.85403    
    997000   1.0019038      18.772383      172.51451    
    998000   1.0030846      18.435474      172.49798    
    999000   1.019741       18.39526       172.50291    
   1000000   1.0544929      18.851864      172.60219    
   1001000   0.96548171     17.922258      172.6714     
   1002000   0.98192993     18.540478      172.63485    
   1003000   0.96436177     17.739876      172.53342    
   1004000   1.0168146      18.154009      172.44474    
   1005000   1.0197095      18.669009      172.2977     
   1006000   0.97800026     18.287409      172.29823    
   1007000   1.0077538      18.502147      172.07575    
   1008000   0.96517499     18.408968      172.02854    
   1009000   1.0220815      18.580123      172.02997    
   1010000   0.98749007     18.884115      171.97539    
   1011000   1.0355093      18.462306      171.96871    
   1012000   1.0053297      18.303645      172.0095     
   1013000   1.0036308      18.372145      172.05118    
   1014000   0.97177468     18.457804      172.0353     
   1015000   0.98871271     18.469985      172.27962    
   1016000   1.0374406      19.009193      172.38039    
   1017000   1.0080974      18.30799       172.07719    
   1018000   0.98119292     18.270573      172.06036    
   1019000   1.0189635      18.652959      172.22513    
   1020000   0.97094763     18.306513      172.16563    
   1021000   0.98847103     18.411881      171.99606    
   1022000   1.0495701      18.358604      171.62048    
   1023000   1.0187927      18.031161      171.46242    
   1024000   1.0024599      18.776713      171.42585    
   1025000   0.9540646      18.477367      171.18743    
   1026000   1.0195268      18.37724       171.29473    
   1027000   0.97462224     18.252567      171.33898    
   1028000   0.94291989     18.414457      171.1327     
   1029000   0.9768744      18.395848      171.02373    
   1030000   1.0466193      18.583789      170.74496    
   1031000   0.96110837     18.774467      170.75839    
   1032000   0.97739743     18.400682      170.71748    
   1033000   0.96679424     18.442334      170.60271    
   1034000   0.97934511     18.321584      170.54092    
   1035000   1.0063646      18.886001      170.34871    
   1036000   0.98912611     18.503801      170.69361    
   1037000   1.0340129      18.543551      170.63848    
   1038000   0.9616465      18.341564      170.51678    
   1039000   1.028233       19.056322      170.39592    
   1040000   1.048278       18.275331      170.3394     
   1041000   1.01336        18.269363      170.52572    
   1042000   1.0012047      18.519534      170.42314    
   1043000   0.99518704     18.573329      170.3083     
   1044000   1.0434393      19.014834      170.08649    
   1045000   1.032387       18.691208      170.15072    
   1046000   0.95588554     18.875855      170.50265    
   1047000   0.99582935     18.784853      170.50424    
   1048000   0.97519738     18.184969      170.407      
   1049000   1.0254942      18.495562      170.35432    
   1050000   0.97346253     18.221892      170.41238    
   1051000   0.98575426     18.290987      170.46445    
   1052000   1.0062503      18.24125       170.55821    
   1053000   1.0234699      18.4927        170.52099    
   1054000   1.0215832      18.378414      170.28479    
   1055000   1.0328506      18.708789      170.32562    
   1056000   0.94124221     18.723225      170.18781    
   1057000   0.99530772     18.649455      170.15513    
   1058000   0.97863451     18.41494       170.0752     
   1059000   0.99405979     18.420751      170.14262    
   1060000   1.04402        18.694937      170.00201    
   1061000   1.0413114      18.849611      169.9451     
   1062000   1.0194747      18.800402      169.98123    
   1063000   1.0204735      18.771564      170.02942    
   1064000   0.96652564     19.012791      170.03253    
   1065000   0.99101262     18.928462      169.86992    
   1066000   0.9995306      18.773556      169.79089    
   1067000   1.0051493      18.439055      169.80517    
   1068000   1.0215493      18.482555      169.53386    
   1069000   0.99403146     18.537463      169.61344    
   1070000   1.0215723      18.760468      169.49314    
   1071000   1.0020457      18.62825       169.36522    
   1072000   1.0079695      18.034154      169.48537    
   1073000   1.0179364      18.37669       169.31627    
   1074000   0.99708788     18.151771      169.17382    
   1075000   0.97315207     18.196025      169.0544     
   1076000   0.95912223     18.401         168.84778    
   1077000   0.99318365     18.633938      168.7476     
   1078000   0.98000891     18.6189        168.76501    
   1079000   1.0107794      18.51466       168.71718    
   1080000   1.0173766      18.624636      168.65587    
   1081000   1.0484872      18.89739       168.387      
   1082000   1.0267499      18.405933      168.35509    
   1083000   0.9526416      17.880509      168.19518    
   1084000   1.0482028      18.966507      168.00891    
   1085000   0.97332927     17.972432      167.80083    
   1086000   0.9971917      18.308101      167.73288    
   1087000   1.0237298      18.529058      167.80237    
   1088000   1.000277       18.165396      167.77567    
   1089000   0.98781112     18.362439      167.72526    
   1090000   1.0674452      18.484964      167.71254    
   1091000   0.99678793     18.013575      167.6394     
   1092000   0.99777388     18.559553      167.69135    
   1093000   0.9710918      18.233433      167.80652    
   1094000   1.0269403      18.391094      167.79345    
   1095000   1.0378673      18.670575      168.02428    
   1096000   1.0021075      18.611621      167.81879    
   1097000   0.94268901     18.178583      167.92451    
   1098000   0.99523648     17.993269      167.92311    
   1099000   0.99908492     18.750585      167.79531    
   1100000   0.95553031     18.176171      167.83115    
   1101000   1.0134675      18.101945      167.81123    
   1102000   1.0283034      18.143344      167.91583    
   1103000   1.0317848      18.703372      168.03638    
   1104000   1.0010717      18.581116      167.95848    
   1105000   1.0213882      19.012491      167.89277    
   1106000   0.97954976     18.627518      167.84126    
   1107000   1.0276605      18.27088       168.00193    
   1108000   1.0094319      18.388807      168.10897    
   1109000   1.0041015      18.596901      167.864      
   1110000   1.0288829      18.491094      167.8412     
   1111000   0.99761818     18.277836      167.62768    
   1112000   0.99987177     18.641421      167.54151    
   1113000   0.97896857     18.757871      167.31054    
   1114000   0.99565688     18.218567      167.21604    
   1115000   1.0079752      18.067329      167.24817    
   1116000   1.0067689      18.044677      167.25601    
   1117000   1.0456578      18.73968       167.27112    
   1118000   1.0154701      18.874443      167.28028    
   1119000   1.0325753      18.554222      167.17838    
   1120000   0.99490082     18.400502      167.11736    
   1121000   1.0037908      18.393931      167.08064    
   1122000   1.0085244      18.311155      167.31241    
   1123000   1.0011217      18.858597      167.29201    
   1124000   1.0120127      18.45427       167.48842    
   1125000   1.0175858      18.262159      167.26954    
   1126000   0.99629119     18.24751       166.91366    
   1127000   0.97677662     18.675488      166.61213    
   1128000   0.99299097     18.871316      166.42786    
   1129000   1.0206753      18.464457      166.44559    
   1130000   1.0000805      18.569338      166.37341    
   1131000   0.99193938     18.074875      166.10775    
   1132000   1.0036145      18.464204      165.84478    
   1133000   1.0345902      18.761747      165.83573    
   1134000   1.0526474      18.946168      165.70185    
   1135000   1.016343       18.487859      165.50811    
   1136000   1.000672       18.189737      165.28983    
   1137000   0.97127352     18.406942      165.25175    
   1138000   0.99720442     18.229546      165.20872    
   1139000   0.96606752     17.914942      165.16982    
   1140000   0.96844379     18.288356      164.87426    
   1141000   0.9552169      18.461457      164.77481    
   1142000   1.0132475      18.50197       164.59771    
   1143000   0.98936286     18.495989      164.49056    
   1144000   0.95051002     18.257254      164.52985    
   1145000   1.0339809      18.735677      164.47628    
   1146000   0.99506918     18.107311      164.36107    
   1147000   0.99915074     17.934311      164.31415    
   1148000   1.0013301      18.319446      164.25546    
   1149000   1.0528724      18.990017      164.11401    
   1150000   1.0067556      18.965396      164.14174    
   1151000   0.99921561     18.074283      164.07073    
   1152000   0.98291421     17.936288      164.04146    
   1153000   1.0367985      18.099148      163.91586    
   1154000   1.0319397      18.391638      163.78867    
   1155000   0.99490433     18.580137      163.55999    
   1156000   1.010481       18.833263      163.5408     
   1157000   1.0156086      18.702325      163.26423    
   1158000   0.98943292     17.970709      163.07573    
   1159000   1.0167063      18.230148      162.93424    
   1160000   0.98802932     18.889808      162.85547    
   1161000   0.94899774     17.810176      162.69953    
   1162000   1.03836        18.210074      162.59258    
   1163000   1.0240695      18.174339      162.63315    
   1164000   0.95036858     18.541677      162.66153    
   1165000   0.97980803     18.392532      162.61851    
   1166000   1.0205425      18.644477      162.71908    
   1167000   1.0563626      18.465947      162.44697    
   1168000   1.0192319      18.419641      162.36089    
   1169000   1.023002       18.427519      162.41699    
   1170000   1.0488553      18.582056      162.37794    
   1171000   1.0030759      18.489726      162.20627    
   1172000   1.0235247      18.528941      162.16475    
   1173000   0.98901466     18.86731       162.2148     
   1174000   0.98749465     18.813295      162.33298    
   1175000   1.02241        17.987905      162.18308    
   1176000   1.036591       18.661485      162.47432    
   1177000   1.0440526      18.359246      162.3659     
   1178000   0.99072774     18.72499       162.38787    
   1179000   1.0096883      18.278569      162.27021    
   1180000   0.9341008      18.51454       162.34489    
   1181000   0.96951846     18.515171      162.3941     
   1182000   0.97864774     18.188035      162.44176    
   1183000   0.98662989     18.043266      162.42219    
   1184000   0.97610153     18.294374      162.42418    
   1185000   1.0392037      18.797161      162.29875    
   1186000   0.99781229     18.123829      162.27515    
   1187000   0.99758827     18.206922      162.12192    
   1188000   1.0305984      18.733343      162.06444    
   1189000   1.0340239      18.429505      161.92019    
   1190000   0.98079073     18.638606      161.96383    
   1191000   0.97280291     18.45453       161.82947    
   1192000   0.99529452     18.390978      161.74068    
   1193000   1.0331948      18.871495      161.6163     
   1194000   0.96264924     18.087059      161.51776    
   1195000   0.98992825     18.870427      161.50815    
   1196000   0.9856876      18.185343      161.36922    
   1197000   1.0243395      18.992286      161.35921    
   1198000   0.97650702     18.841882      161.47873    
   1199000   0.98596151     18.167791      161.5836     
   1200000   1.0407607      17.786709      161.28448    
   1201000   0.95895991     18.371518      161.16149    
   1202000   1.0146486      18.292049      161.21358    
   1203000   0.98896019     18.957055      161.02377    
   1204000   1.0127497      19.048662      161.10313    
   1205000   0.98115542     18.449314      160.96023    
   1206000   1.0229204      18.234026      160.81219    
   1207000   0.97848864     18.464203      160.72445    
   1208000   1.0164139      18.388585      160.78967    
   1209000   1.0165639      18.660656      160.62007    
   1210000   0.98637939     18.710187      160.4076     
   1211000   0.98238162     18.237891      160.34035    
   1212000   0.99371507     18.134135      160.46959    
   1213000   0.99914999     18.035087      160.34903    
   1214000   0.99220423     18.716273      160.24389    
   1215000   0.99044694     18.627979      160.23193    
   1216000   0.98127298     18.33549       160.23772    
   1217000   0.97068892     18.531157      160.40146    
   1218000   1.0144157      18.567936      160.36879    
   1219000   1.0205857      18.304138      160.3703     
   1220000   0.99836633     18.148203      160.32638    
   1221000   0.93731283     18.449158      160.01647    
   1222000   0.99802069     18.800986      159.90606    
   1223000   1.023952       18.498989      159.82888    
   1224000   1.025404       18.742264      159.73969    
   1225000   1.0162749      18.593566      159.64025    
   1226000   0.97233831     19.083807      159.61751    
   1227000   1.0172372      18.667325      159.52336    
   1228000   1.0327069      18.650412      159.43593    
   1229000   0.99229387     18.244482      159.30914    
   1230000   1.0007367      18.501169      159.20585    
   1231000   1.0357156      18.111217      159.04882    
   1232000   1.0102812      18.341037      158.81961    
   1233000   0.99423662     18.455493      158.96044    
   1234000   0.977604       18.622367      158.948      
   1235000   0.993946       18.018745      158.89747    
   1236000   1.0144436      18.007362      158.75882    
   1237000   1.0037312      18.245859      158.865      
   1238000   0.9979227      18.397208      158.74533    
   1239000   0.94469993     18.141351      158.69967    
   1240000   0.99841341     18.537096      158.50165    
   1241000   1.013572       18.172703      158.22632    
   1242000   0.97583151     18.50398       158.19205    
   1243000   0.99549735     18.908981      158.09448    
   1244000   1.0208653      18.274119      158.30915    
   1245000   0.9984312      18.478457      158.39108    
   1246000   0.99568374     18.745062      158.40506    
   1247000   0.9966185      18.179111      158.71864    
   1248000   1.0408984      19.042198      158.70682    
   1249000   1.0308431      18.162892      158.63165    
   1250000   0.99801369     18.100133      158.88182    
   1251000   1.0190543      18.53028       158.71538    
   1252000   0.98849332     18.149145      158.61706    
   1253000   0.99240027     18.148201      158.60378    
   1254000   1.017966       18.477968      158.60929    
   1255000   0.98459579     18.38786       158.43152    
   1256000   1.0105659      18.571789      158.61172    
   1257000   0.97966781     17.931215      158.40277    
   1258000   0.99358349     18.55439       158.3328     
   1259000   0.98518375     18.042713      158.25244    
   1260000   0.98092046     18.672514      157.99401    
   1261000   0.96623414     17.747684      157.89051    
   1262000   1.0134619      18.579046      157.72056    
   1263000   0.99951435     18.875293      157.59027    
   1264000   0.98574044     18.357378      157.56873    
[...]
   4790000   0.9782354      16.600027      5.2276553    
   4791000   0.9956895      16.662394      5.2129171    
   4792000   1.002883       16.099168      5.2123749    
   4793000   1.0223073      16.752252      5.2116776    
   4794000   1.0175474      16.427717      5.2287725    
   4795000   1.0003438      17.140721      5.2433753    
   4796000   0.98275025     16.445106      5.2262256    
   4797000   1.0067623      16.940288      5.2081587    
   4798000   1.0287972      16.401961      5.2036887    
   4799000   1.00995        16.589313      5.2276948    
   4800000   1.0033553      16.881469      5.2171068    
   4801000   0.95762052     16.084661      5.2499652    
   4802000   1.0460043      16.553997      5.275434     
   4803000   0.99883127     16.593607      5.2428633    
   4804000   0.97747651     16.694668      5.2703004    
   4805000   0.98353643     17.276155      5.2089419    
   4806000   0.98961034     17.104638      5.2620205    
   4807000   0.99198866     16.998604      5.255035     
   4808000   1.0664328      16.927962      5.2558382    
   4809000   1.0257035      17.414349      5.2461711    
   4810000   1.0389657      16.698228      5.2828499    
   4811000   1.0351283      16.627469      5.283511     
   4812000   1.0227609      16.647677      5.2797757    
   4813000   1.0579691      17.19954       5.2571805    
   4814000   0.99731947     16.824869      5.222916     
   4815000   0.9811513      16.499952      5.2507663    
   4816000   1.0187674      16.905509      5.1773045    
   4817000   0.99268703     16.721409      5.1952198    
   4818000   1.0490663      17.202055      5.2234649    
   4819000   1.0451893      17.05941       5.2123571    
   4820000   1.015527       17.42868       5.2171441    
   4821000   0.98796836     16.709224      5.2306647    
   4822000   1.0134238      16.642667      5.2219109    
   4823000   1.0015453      16.127189      5.2472654    
   4824000   0.98637821     16.763785      5.2349081    
   4825000   1.0335033      17.245362      5.2228404    
   4826000   0.98133601     16.83209       5.213526     
   4827000   0.97111616     16.658768      5.2426188    
   4828000   1.003592       16.487987      5.2285431    
   4829000   0.9482476      16.67167       5.2120323    
   4830000   0.99457209     16.687925      5.2339838    
   4831000   0.93306827     16.594978      5.2300057    
   4832000   0.99660923     17.051094      5.2083586    
   4833000   1.0034158      16.829641      5.2307839    
   4834000   1.0388447      17.330712      5.2316466    
   4835000   0.99278029     17.046356      5.2273799    
   4836000   0.99784349     16.935305      5.2204888    
   4837000   1.0368753      16.789228      5.2890217    
   4838000   1.0199732      16.761648      5.2613855    
   4839000   0.98786531     16.901419      5.2582654    
   4840000   0.99634885     16.333129      5.233387     
   4841000   0.92886848     16.854928      5.2016598    
   4842000   1.0029181      16.622532      5.2325427    
   4843000   0.95473896     16.577258      5.1984806    
   4844000   0.96873369     16.730223      5.2346288    
   4845000   1.0138166      16.895924      5.2274946    
   4846000   1.0023556      16.943088      5.2288649    
   4847000   1.057528       17.125283      5.2329412    
   4848000   1.0148937      17.111661      5.2219655    
   4849000   1.0231523      16.637289      5.2296151    
   4850000   1.0135887      16.616711      5.2690765    
   4851000   0.98791669     16.764701      5.2452757    
   4852000   0.99790377     16.959105      5.2031323    
   4853000   0.97609294     16.993911      5.2223588    
   4854000   0.99940557     16.79656       5.2350757    
   4855000   1.0082806      16.016037      5.2580696    
   4856000   0.99748076     16.940138      5.2681493    
   4857000   0.98769942     16.623314      5.2479079    
   4858000   0.99849521     17.519387      5.2118193    
   4859000   1.0008592      16.669199      5.2766272    
   4860000   0.98465194     16.534687      5.2627404    
   4861000   1.0364646      17.34431       5.2405983    
   4862000   0.99525756     16.928132      5.2583238    
   4863000   1.0173709      16.506426      5.252839     
   4864000   0.99303682     16.23438       5.2321161    
   4865000   1.0030888      16.693993      5.2301032    
   4866000   1.0402493      16.397894      5.265715     
   4867000   0.98641447     16.816996      5.3036963    
   4868000   0.99583211     16.892082      5.2586104    
   4869000   1.0148602      16.603905      5.2386828    
   4870000   1.0167738      16.80447       5.2358364    
   4871000   1.0060783      16.865698      5.2233321    
   4872000   0.99781616     16.747566      5.2162286    
   4873000   1.0260036      17.139867      5.2323782    
   4874000   0.96303643     16.783002      5.2034337    
   4875000   0.99693822     16.027021      5.224362     
   4876000   0.97720872     16.461264      5.2361819    
   4877000   0.99717383     17.079247      5.2102387    
   4878000   1.0128121      16.629937      5.2054779    
   4879000   1.0053459      17.124167      5.2127505    
   4880000   1.0125406      16.549457      5.209538     
   4881000   0.9979892      16.817816      5.2011613    
   4882000   1.0173052      16.746969      5.2231989    
   4883000   0.98848184     17.194941      5.2348329    
   4884000   0.97812351     16.849412      5.2503258    
   4885000   1.0379505      16.895374      5.2359602    
   4886000   0.98499267     16.125193      5.2704506    
   4887000   1.0271175      16.583161      5.2579196    
   4888000   0.99711431     17.471065      5.2686053    
   4889000   1.0419747      16.66792       5.2869631    
   4890000   1.0527084      17.111182      5.2362189    
   4891000   0.9712863      16.513797      5.2161687    
   4892000   0.96469943     17.036688      5.2283009    
   4893000   1.0550567      16.705401      5.272039     
   4894000   1.0526851      17.35907       5.2877839    
   4895000   1.0084103      16.915603      5.2528877    
   4896000   1.0026227      16.627909      5.24147      
   4897000   1.0584734      17.305143      5.222149     
   4898000   1.060163       17.324783      5.2599948    
   4899000   0.98929245     16.972015      5.2857149    
   4900000   0.9985783      16.919854      5.2674926    
   4901000   0.97193742     17.244492      5.2323561    
   4902000   1.0189268      17.427282      5.2435273    
   4903000   0.99825313     16.725948      5.2405124    
   4904000   1.0402465      17.051229      5.2350665    
   4905000   0.98546175     16.660904      5.2559434    
   4906000   0.99661596     16.525535      5.2325287    
   4907000   1.0322335      17.709564      5.2324619    
   4908000   0.98111462     17.350796      5.2396324    
   4909000   1.0326629      16.880926      5.2587003    
   4910000   1.0400749      16.532102      5.2708635    
   4911000   1.0022105      16.852428      5.2529583    
   4912000   0.99264646     16.892943      5.2693758    
   4913000   1.0297435      17.359435      5.2460388    
   4914000   1.0009297      16.58453       5.2635937    
   4915000   1.02762        17.093372      5.2347164    
   4916000   1.0268207      17.563381      5.2395316    
   4917000   1.0193375      16.739567      5.2823975    
   4918000   1.0214254      17.040771      5.2641228    
   4919000   1.0405481      17.234118      5.2430304    
   4920000   0.98752931     16.796228      5.2473655    
   4921000   1.0045221      16.609768      5.2404216    
   4922000   0.98606647     16.514207      5.2611294    
   4923000   1.0165027      16.925999      5.2508615    
   4924000   0.98545134     17.256618      5.2480999    
   4925000   1.0199007      17.008898      5.2422309    
   4926000   0.96279877     16.169753      5.2697743    
   4927000   0.99904945     16.868522      5.2436747    
   4928000   0.97092994     17.147257      5.2469873    
   4929000   1.0372145      16.900749      5.2782879    
   4930000   1.0482322      17.159757      5.2067576    
   4931000   1.016648       16.329907      5.2091995    
   4932000   1.0194164      17.021713      5.1879353    
   4933000   1.0018426      17.111559      5.2315887    
   4934000   1.0352749      16.314509      5.2342101    
   4935000   1.0252705      16.878126      5.2464084    
   4936000   0.97532763     16.869739      5.2299956    
   4937000   1.013035       17.209819      5.231162     
   4938000   0.99874965     16.599118      5.2301909    
   4939000   0.94452657     16.885604      5.1979154    
   4940000   0.97339505     16.553737      5.2408633    
   4941000   1.0355938      16.840316      5.2389833    
   4942000   1.0308521      16.552558      5.23257      
   4943000   1.0245075      17.164211      5.1832372    
   4944000   1.0058414      16.934575      5.1969909    
   4945000   0.96679769     16.551659      5.2274259    
   4946000   1.0132845      17.027894      5.2061976    
   4947000   1.0201979      16.738254      5.2229038    
   4948000   1.0025579      17.032847      5.2198683    
   4949000   0.99961465     16.282775      5.2285319    
   4950000   0.96674565     16.551147      5.2611893    
   4951000   1.0085569      16.808137      5.2249669    
   4952000   1.0013942      17.043577      5.252013     
   4953000   0.97924637     16.501256      5.2261443    
   4954000   1.0332806      17.008885      5.208425     
   4955000   1.0489737      16.737351      5.2019734    
   4956000   1.024154       17.228379      5.2335199    
   4957000   0.99092309     16.910555      5.2302817    
   4958000   1.0563739      16.943185      5.2395127    
   4959000   1.0284092      16.747433      5.259241     
   4960000   1.0051812      16.670673      5.2107745    
   4961000   1.0313587      17.550171      5.1665678    
   4962000   0.99293702     16.749642      5.2205123    
   4963000   0.98726571     17.022029      5.2492564    
   4964000   1.0158183      16.56791       5.1958105    
   4965000   1.0083284      16.594463      5.2427153    
   4966000   0.98410647     16.623869      5.2496558    
   4967000   1.0076659      17.243889      5.2121749    
   4968000   1.019826       16.833042      5.2271744    
   4969000   0.97011865     17.015267      5.2012533    
   4970000   0.94095263     16.066859      5.2151492    
   4971000   1.0193424      16.564323      5.2250509    
   4972000   1.0126694      15.89624       5.2102265    
   4973000   0.99104665     17.008388      5.2093273    
   4974000   1.0303195      16.905835      5.2306323    
   4975000   1.0027356      16.806215      5.2567026    
   4976000   0.99576421     17.212869      5.2383529    
   4977000   1.0213366      16.678506      5.2210101    
   4978000   1.0225553      17.148349      5.2241202    
   4979000   1.006283       16.493776      5.2139864    
   4980000   0.99929133     16.682501      5.2434762    
   4981000   0.9837257      16.497781      5.2717247    
   4982000   1.0231422      16.60251       5.2373173    
   4983000   0.97662551     16.916829      5.2520231    
   4984000   0.97559828     16.957484      5.233686     
   4985000   1.0337334      17.039609      5.21754      
   4986000   1.0036349      17.088277      5.2464722    
   4987000   1.0071455      17.35037       5.2578935    
   4988000   0.9542436      16.916675      5.2134849    
   4989000   0.98202373     16.789971      5.2332842    
   4990000   0.9581947      16.567088      5.2863262    
   4991000   0.98381592     16.824295      5.2425568    
   4992000   1.0243825      16.99285       5.2598597    
   4993000   1.0302737      16.406131      5.2470236    
   4994000   0.95080525     16.600483      5.2749918    
   4995000   1.0006442      16.04649       5.2311083    
   4996000   1.0082365      16.767181      5.2477657    
   4997000   1.0013811      17.115273      5.2356707    
   4998000   1.0403773      16.836687      5.2189393    
   4999000   0.98241107     16.81954       5.2579357    
   5000000   0.96425023     16.860689      5.2571932    
   5001000   0.97949787     16.5311        5.2600625    
   5002000   0.99878831     16.521331      5.2845369    
   5003000   1.0067156      16.469144      5.2074953    
   5004000   1.010194       17.152696      5.2496545    
   5005000   1.0082888      17.103217      5.265554     
   5006000   1.0606364      16.754853      5.2964274    
   5007000   0.9747036      16.714879      5.2553045    
   5008000   0.99439835     16.820538      5.2723626    
   5009000   0.97481827     16.845178      5.2725331    
   5010000   0.98025437     16.72156       5.277631     
   5011000   1.0001738      17.115226      5.2734326    
   5012000   1.0393051      16.991339      5.2397388    
   5013000   0.97661593     16.667022      5.2501673    
   5014000   0.96756813     16.68301       5.2231166    
   5015000   0.98591037     17.114125      5.2681084    
   5016000   0.97492319     16.713136      5.2549086    
   5017000   1.0150517      16.530904      5.2362068    
   5018000   1.0505487      16.548961      5.249148     
   5019000   1.0161636      17.283882      5.2374483    
   5020000   1.0211081      16.738658      5.2388321    
   5021000   0.99379216     16.282981      5.2088746    
   5022000   1.0247559      16.964314      5.2576433    
   5023000   1.027126       16.444998      5.2533474    
   5024000   0.95302733     17.128619      5.239686     
   5025000   0.99617356     16.91315       5.2008977    
   5026000   1.0072247      17.004384      5.2124614    
   5027000   0.99862631     17.034484      5.2736542    
   5028000   1.0028222      17.132616      5.2690559    
   5029000   1.0324305      16.112031      5.2797564    
   5030000   0.99354828     16.942891      5.2214302    
   5031000   0.93813057     17.289774      5.2245796    
   5032000   1.0021383      16.771429      5.1973348    
   5033000   0.99496737     16.829823      5.2211936    
   5034000   1.0288111      16.358355      5.2376394    
   5035000   1.0009633      16.938583      5.2449446    
   5036000   0.9771108      16.623035      5.2664834    
   5037000   0.99076029     16.557398      5.2537028    
   5038000   1.0034845      16.200853      5.2350749    
   5039000   1.0058803      16.518786      5.264874     
   5040000   1.016796       16.426251      5.2483204    
   5041000   0.99421699     16.799029      5.222399     
   5042000   1.0257941      16.747132      5.230162     
   5043000   0.99427974     16.609669      5.2361068    
   5044000   1.013468       16.675853      5.2343947    
   5045000   0.98538094     16.563469      5.2255661    
   5046000   0.99250717     16.883175      5.268559     
   5047000   0.93765545     16.573763      5.2579889    
   5048000   1.0159758      17.081707      5.2028519    
   5049000   0.98356244     16.850999      5.2498309    
   5050000   0.99561891     16.930235      5.2398647    
   5051000   1.0197267      17.022224      5.2334774    
   5052000   0.99500568     16.89043       5.2427689    
   5053000   1.0210641      17.005556      5.2361872    
   5054000   1.0325149      16.497508      5.2440631    
   5055000   0.95102888     16.608215      5.2682054    
   5056000   0.96130862     16.29472       5.2384123    
   5057000   1.0160757      16.750766      5.2741257    
   5058000   1.026511       17.244718      5.2587071    
   5059000   0.99064893     17.199663      5.242271     
   5060000   1.0421279      17.493878      5.2315239    
   5061000   0.99101714     16.531838      5.2202796    
   5062000   1.001941       17.173407      5.206963     
   5063000   0.94012475     16.131547      5.2547527    
   5064000   0.97387205     16.876935      5.2244509    
   5065000   0.94213138     17.060994      5.2542989    
   5066000   1.0181124      16.922888      5.2402816    
   5067000   0.97252587     16.870795      5.2292373    
   5068000   1.0365592      17.269396      5.2400714    
   5069000   1.0296092      16.668368      5.3237066    
   5070000   0.98829867     16.656194      5.268789     
   5071000   1.0275599      17.204672      5.2439213    
   5072000   1.0041076      16.330374      5.2482091    
   5073000   1.0049555      16.850462      5.2510127    
   5074000   1.0261063      16.605976      5.2368746    
   5075000   0.98186754     16.434548      5.2531524    
   5076000   1.0254302      17.59654       5.2250091    
   5077000   0.98204009     16.870035      5.2284255    
   5078000   1.015598       16.63294       5.2228817    
   5079000   1.0339282      16.77862       5.2422822    
   5080000   1.0075066      16.399581      5.2464842    
   5081000   1.010927       16.811064      5.2530129    
   5082000   1.0196166      16.515152      5.2552158    
   5083000   1.0235835      17.456609      5.2711161    
   5084000   0.97957609     16.704533      5.240568     
   5085000   0.95564471     16.936239      5.233183     
   5086000   0.97950289     16.985576      5.2231566    
   5087000   0.97652762     16.27847       5.2368908    
   5088000   0.971678       16.975588      5.2184848    
   5089000   1.0195516      16.598874      5.2353909    
   5090000   1.0228267      16.680947      5.2699617    
   5091000   0.96866396     16.632709      5.2729292    
   5092000   1.0037343      16.146662      5.2126376    
   5093000   0.95922813     16.702135      5.2326963    
   5094000   0.99629262     17.01056       5.2737402    
   5095000   0.97047424     16.782752      5.2520059    
   5096000   1.0174328      17.059766      5.2540488    
   5097000   0.98929247     16.784154      5.2614971    
   5098000   1.0521776      16.771285      5.2467859    
   5099000   0.98525421     16.49764       5.2222036    
   5100000   1.0294997      17.33734       5.2250245    
Loop time of 6365.53 on 4 procs for 5000000 steps with 1100 atoms

Performance: 678654.896 tau/day, 785.480 timesteps/s
150.9% CPU use with 2 MPI tasks x 2 OpenMP threads

MPI task timing breakdown:
Section |  min time  |  avg time  |  max time  |%varavg| %total
---------------------------------------------------------------
Pair    | 214.18     | 1410.3     | 2606.4     |3185.0 | 22.15
Bond    | 29.437     | 83.069     | 136.7      | 588.4 |  1.30
Neigh   | 3187.9     | 3188       | 3188       |   0.1 | 50.08
Comm    | 105.01     | 351.86     | 598.72     |1316.0 |  5.53
Output  | 14.004     | 14.161     | 14.319     |   4.2 |  0.22
Modify  | 64.313     | 166.02     | 267.73     | 789.4 |  2.61
Other   |            | 1152       |            |       | 18.10

Nlocal:            550 ave        1100 max           0 min
Histogram: 1 0 0 0 0 0 0 0 0 1
Nghost:              0 ave           0 max           0 min
Histogram: 2 0 0 0 0 0 0 0 0 0
Neighs:         152633 ave      305266 max           0 min
Histogram: 1 0 0 0 0 0 0 0 0 1

Total # of neighbors = 305266
Ave neighs/atom = 277.51455
Ave special neighs/atom = 1.9981818
Neighbor list builds = 43777
Dangerous builds = 0

# This simulation is done
# Move onto the next one
clear
  using 2 OpenMP thread(s) per MPI task
package omp 0
using multi-threaded neighbor list subroutines
next f
jump SELF

###
# Reference paper:
# K. Kremer and G. S. Grest
# Dynamics of entangled linear polymer melts: A molecular-dynamics simulation
# J Chem Phys 92, 5057 (1990)

##################################
# MIHIR: for branched polymers
# LJ minimum first to expand and explore, then collapse
###

###
# Looping through the various linear polymers to simulate,
# define variables to switch through
variable f index bb100nuc0bl0bn0d30tot100 bb200nuc0bl0bn0d30tot200 bb300nuc0bl0bn0d30tot300 bb400nuc0bl0bn0d30tot400 bb500nuc0bl0bn0d30tot500 bb600nuc0bl0bn0d30tot600 bb700nuc0bl0bn0d30tot700 bb800nuc0bl0bn0d30tot800 bb900nuc0bl0bn0d30tot900 bb1000nuc0bl0bn0d30tot1000 bb1100nuc0bl0bn0d30tot1100 bb1200nuc0bl0bn0d30tot1200
###


###
# Box and units  (use LJ units and periodic boundaries)
###

units lj
log linear/logs/$f.log
log linear/logs/bb1200nuc0bl0bn0d30tot1200.log
