#atom_style bond #no stiffness
atom_style angle #with stiffness

boundary        p p p
###
# Pair interactions require lists of neighbours to be calculated
###

#neighbor 0.3 bin
neighbor 4 bin

neigh_modify every 1 delay 1 check yes
atom_modify sort 0 0
### Generate RESTART file, SPECIAL format, not a .txt file ###
### Useful if simulation crashes ###

restart 1000000 linear/restarts/$f.restart
restart 1000000 linear/restarts/bb1200nuc0bl0bn0d30tot1200.restart
#############################



### READ "start" data file ###

read_data linear/$f.dat
read_data linear/bb1200nuc0bl0bn0d30tot1200.dat
Reading data file ...
  orthogonal box = (-1000 -1000 -1000) to (1000 1000 1000)
  1 by 1 by 2 MPI processor grid
  reading atoms ...
  1200 atoms
  scanning bonds ...
  1 = max bonds/atom
  scanning angles ...
  1 = max angles/atom
  reading bonds ...
  1199 bonds
  reading angles ...
  1198 angles
Finding 1-2 1-3 1-4 neighbors ...
  special bond factors lj:    0        0        0       
  special bond factors coul:  0        0        0       
     2 = max # of 1-2 neighbors
     2 = max # of 1-3 neighbors
     4 = max # of 1-4 neighbors
     6 = max # of special neighbors
  special bonds CPU = 0.003 seconds
  read_data CPU = 0.154 seconds

######################

### READ "REstart" data file ###

######################



###
# Define groups (atom type 1 is group 'all')
###
group all type 1
1200 atoms in group all


###
# Dump configs - "simple dumpings"
###

###
# Dump configs + box coords
###

dump   1   all   custom   1000  linear/trjs/$f.lammpstrj  id  x y z  ix iy iz
dump   1   all   custom   1000  linear/trjs/bb1200nuc0bl0bn0d30tot1200.lammpstrj  id  x y z  ix iy iz
dump_modify   1   format line "%d %.5f %.5f %.5f %d %d %d"

########################################################################


###################################################################
# Stiffness term
#
# E = K * (1+cos(theta)), K>0
#
angle_style   cosine
#change this coefficient to change stiffness (e.g. 1,5,10)
angle_coeff   1 1.0
###################################################################

###################################################################
# Pair interaction between non-bonded atoms
#
#  Lennard-Jones 12-6 potential with cutoff:
#  potential E=4epsilon[ (sigma/r)^12 - (sigma/r)^6]  for r<r_cut
#
#  1.12246 = 2^(1/6) is the minimum of the potential


pair_style      lj/cut 1.12246152962189
#pair_style      lj/cut 3

#
#  pair_modify shift yes adds a constant to the potential such

#  that E(r_cut)=0. Forces remains unchanged.
#

pair_modify     shift yes

#
#  pair_coeff for lj/cut, specify 4:
#    * atom type interacting with
#    * atom type
#    * epsilon (energy units)
#    * sigma (distance units)
#

pair_coeff      1 1 1.0 1.0
###################################################################

###################################################################
# Pair interaction between non-bonded atoms
#
#  soft potential, for PUSHING apart overlapping atoms
#  potential E=A*(1 + cos(pi*r/r_c))
#
#  1.12246 = 2^(1/6) is the cut-off r_c

#pair_style     soft 1.12246152962189

#
#  pair_coeff for soft, specify 3:
#    * atom type interacting with
#    * atom type
#    * A
#
#

#pair_coeff      1 1 100.0
###################################################################

###################################################################
# Pair interaction between bonded atoms
#
# Fene potential + Lennard Jones 12-6:

#
#  E= - 0.5 K R0^2 ln[ 1- (r/R0)^2]
#     + 4epsilon[ (sigma/r)^12 - (sigma/r)^6] + epsilon
#

bond_style   fene


#
# For style fene, specify:
#   * bond type
#   * K (energy/distance^2)
#   * R0 (distance)
#   * epsilon (energy)  (LJ component)
#   * sigma (distance)  (LJ component)
#


special_bonds fene #<=== I M P O R T A N T (new command)
Finding 1-2 1-3 1-4 neighbors ...
  special bond factors lj:    0        1        1       
  special bond factors coul:  0        1        1       
     2 = max # of 1-2 neighbors
     6 = max # of special neighbors
  special bonds CPU = 0.001 seconds

bond_coeff   1   30   2   1.0   1.0


###################################################

###################################################################
# Pair interaction between bonded atoms
#
# Harmonic potential:
#
#  E= K * (R-R0)^2
#

#bond_style   harmonic

#
# For style harmonic, specify:
#   * bond type
#   * K (energy/distance^2)
#   * R0 (distance)
#

#bond_coeff   1   60.0   1.0
#bond_coeff   2   harmonic 0.1   1.0

###################################################
compute 1 all gyration
variable rog equal c_1
#compute 2 all coord/atom cutoff 1.1

#dump 2 all custom 10000 contact_number.dump id c_2


###
# Set up fixes
###
thermo_style   custom   step  temp enthalpy c_1
fix 1 all nve   ###NVE ensemble

fix 2 all   langevin   1.0 1.0 1.0  100103   ###Langevin integrator Tstart Tstop 1/friction rndseed


##### Sample thermodynamic info  (temperature, energy, pressure, etc.) #####
thermo 1000









############################################################################

###
# set timestep of integrator

timestep 0.01

###
# run integration for a number of steps
###
#run 0
#variable r equal c_1
#if "$r < 63.1" then "quit 1"

# lj potential minimum, cause molecule to explore
run 100000
Generated 0 of 0 mixed pair_coeff terms from geometric mixing rule
Last active /omp style is angle_style cosine/omp
Neighbor list info ...
  update: every = 1 steps, delay = 1 steps, check = yes
  max neighbors/atom: 2000, page size: 100000
  master list distance cutoff = 5.1224615
  ghost atom cutoff = 5.1224615
  binsize = 2.5612308, bins = 781 781 781
  1 neighbor lists, perpetual/occasional/extra = 1 0 0
  (1) pair lj/cut/omp, perpetual
      attributes: half, newton on, omp
      pair build: half/bin/newton/omp
      stencil: half/bin/3d
      bin: standard
WARNING: Communication cutoff 5.12246152962189 is shorter than a bond length based estimate of 5.455. This may lead to errors. (src/comm.cpp:723)
Per MPI rank memory allocation (min/avg/max) = 939.7 | 940.3 | 940.9 Mbytes
   Step          Temp         Enthalpy         c_1      
         0   0              13.41568       300.00019    
      1000   1.0294565      18.894654      299.74235    
      2000   0.97332085     19.152276      299.59336    
      3000   0.96880323     18.68185       299.48033    
      4000   1.0318738      18.836317      299.58174    
      5000   0.97464408     18.885961      299.36719    
      6000   1.0338058      19.057537      299.22944    
      7000   1.0013407      18.642041      299.17358    
      8000   0.97097512     18.816845      298.95855    
      9000   0.96859337     18.662656      298.70345    
     10000   1.0138052      18.703245      298.60361    
     11000   1.0107931      19.114443      298.41943    
     12000   1.0166681      18.799202      298.19818    
     13000   0.95165788     19.038435      298.14568    
     14000   0.97228384     18.69348       297.99434    
     15000   0.98032671     18.837272      297.83186    
     16000   1.0563295      19.204414      297.75192    
     17000   1.0327982      18.665184      297.46663    
     18000   0.99867975     19.065827      297.25514    
     19000   1.0373744      19.118511      297.26932    
     20000   1.0112905      18.91645       297.24652    
     21000   1.0169117      18.636171      297.14763    
     22000   0.99698839     18.765025      296.79379    
     23000   0.97202832     18.73684       296.77377    
     24000   1.0108528      18.821191      296.74487    
     25000   1.0045195      18.805687      296.46736    
     26000   1.0196821      19.115773      296.32617    
     27000   1.0355653      18.906879      296.23365    
     28000   0.99543975     18.89178       296.15929    
     29000   1.0200752      19.542374      296.06243    
     30000   1.0028704      18.738682      295.87094    
     31000   0.97329415     19.32644       295.78344    
     32000   0.97044798     18.464016      295.65253    
     33000   1.0347927      18.83434       295.57018    
     34000   0.97516776     19.248373      295.37565    
     35000   0.98863291     19.011319      295.52878    
     36000   1.0287831      18.768197      295.51525    
     37000   0.99493281     18.836814      295.28299    
     38000   1.0423663      19.339562      295.42877    
     39000   0.97013108     18.815815      295.32207    
     40000   1.0100366      18.897967      295.44848    
     41000   1.0271697      19.301103      295.51299    
     42000   0.96624973     19.009298      295.22503    
     43000   0.9533361      19.083804      295.01704    
     44000   0.98206299     19.084978      294.79163    
     45000   0.96014811     19.067066      294.57436    
     46000   1.0352497      19.506212      294.61546    
     47000   1.0277975      19.03032       294.46623    
     48000   1.0256509      18.738708      294.3189     
     49000   0.97984854     19.318147      293.86552    
     50000   0.99244975     19.212916      293.61422    
     51000   1.0326319      18.930579      293.61511    
     52000   1.0038713      18.87428       293.24885    
     53000   1.0273036      19.217027      292.98275    
     54000   0.98543045     19.390507      292.69075    
     55000   0.99334155     19.318628      292.27803    
     56000   1.0252087      19.163414      292.25279    
     57000   0.96511881     19.259906      292.18968    
     58000   0.98783266     19.537358      292.1418     
     59000   0.96400755     18.961019      291.98569    
     60000   0.98015051     19.42149       292.0105     
     61000   1.0045189      19.451921      292.15883    
     62000   1.0093146      18.97981       292.14194    
     63000   0.98881476     18.999344      292.04388    
     64000   0.97731659     19.161682      291.941      
     65000   1.005729       19.049141      291.63792    
     66000   1.013229       19.131593      291.50718    
     67000   0.98469551     19.178658      291.27869    
     68000   1.0168007      19.208335      291.09453    
     69000   0.99594258     19.322483      290.88339    
     70000   1.0199331      18.956958      290.70358    
     71000   0.99151861     19.48354       290.42856    
     72000   0.99053139     19.32308       290.36209    
     73000   0.99985256     19.432107      290.18752    
     74000   0.97122097     18.963103      289.97229    
     75000   0.98397282     19.002027      289.85709    
     76000   1.018458       19.338834      289.58293    
     77000   0.97659373     19.291505      289.38368    
     78000   0.9922409      19.130156      289.56033    
     79000   1.0269834      19.234778      289.39428    
     80000   0.99180313     18.984477      289.20471    
     81000   0.99209439     19.676041      288.90586    
     82000   1.009004       19.588432      288.6654     
     83000   0.9824843      19.315554      288.504      
     84000   0.98187785     19.535143      288.51272    
     85000   1.0061962      19.125919      288.36773    
     86000   1.0245231      19.23995       288.26398    
     87000   1.0106747      19.692264      287.98477    
     88000   1.0089941      19.191549      287.80777    
     89000   1.0160502      19.319944      287.4956     
     90000   0.98368369     18.842026      287.45562    
     91000   1.0020466      18.998363      287.39754    
     92000   1.0387258      19.281924      287.2499     
     93000   1.0154064      19.300595      287.11733    
     94000   0.99687533     19.556573      286.97838    
     95000   1.0230938      19.053707      286.89105    
     96000   1.0258343      19.481728      286.62044    
     97000   0.98454787     19.641763      286.3018     
     98000   1.0036522      19.599348      286.23852    
     99000   0.98818302     19.335934      285.96656    
    100000   0.93682967     19.399154      285.9586     
Loop time of 249.094 on 4 procs for 100000 steps with 1200 atoms

Performance: 346856.719 tau/day, 401.455 timesteps/s
106.1% CPU use with 2 MPI tasks x 2 OpenMP threads

MPI task timing breakdown:
Section |  min time  |  avg time  |  max time  |%varavg| %total
---------------------------------------------------------------
Pair    | 1.138      | 1.1878     | 1.2377     |   4.6 |  0.48
Bond    | 2.4585     | 2.5338     | 2.6091     |   4.7 |  1.02
Neigh   | 235.97     | 235.97     | 235.97     |   0.0 | 94.73
Comm    | 3.2507     | 3.3105     | 3.3704     |   3.3 |  1.33
Output  | 0.33412    | 0.33825    | 0.34238    |   0.7 |  0.14
Modify  | 4.3897     | 4.5404     | 4.6911     |   7.1 |  1.82
Other   |            | 1.211      |            |       |  0.49

Nlocal:            600 ave         708 max         492 min
Histogram: 1 0 0 0 0 0 0 0 0 1
Nghost:            562 ave         701 max         423 min
Histogram: 1 0 0 0 0 0 0 0 0 1
Neighs:         2863.5 ave        3657 max        2070 min
Histogram: 1 0 0 0 0 0 0 0 0 1

Total # of neighbors = 5727
Ave neighs/atom = 4.7725
Ave special neighs/atom = 1.9983333
Neighbor list builds = 1068
Dangerous builds = 0

# Replace lj potential, now collapse
pair_style      lj/cut 3

# Cutoff simul when gyration under 5
# Variable created with equal requires v_ + 'name'
fix 3 all halt 1000 v_rog < 5

run 5000000
Generated 0 of 0 mixed pair_coeff terms from geometric mixing rule
Last active /omp style is angle_style cosine/omp
Per MPI rank memory allocation (min/avg/max) = 939.7 | 940.4 | 941 Mbytes
   Step          Temp         Enthalpy         c_1      
    100000   0.93682967     18.976902      285.9586     
    101000   1.0066779      19.425169      285.78874    
    102000   0.98386019     18.607442      285.36534    
    103000   1.0360741      19.098778      285.19774    
    104000   0.95684218     18.883738      284.984      
    105000   0.94567472     18.744264      284.86811    
    106000   1.0391412      18.934307      284.90246    
    107000   1.0279107      19.022029      284.73037    
    108000   0.98895785     18.9136        284.50423    
    109000   0.97787573     18.941248      284.39079    
    110000   0.99301708     19.003485      284.13544    
    111000   1.0007999      18.948765      283.94202    
    112000   0.99988342     18.692694      283.88365    
    113000   0.99261755     18.917579      283.98507    
    114000   1.0063935      18.767204      283.68715    
    115000   0.9862375      19.146986      283.58552    
    116000   1.0028307      18.724951      283.63125    
    117000   0.98497861     18.622676      283.29885    
    118000   1.0345611      19.030185      283.1566     
    119000   1.0100509      18.611866      282.96432    
    120000   1.036699       19.149734      282.95951    
    121000   1.0499602      19.132504      282.7969     
    122000   1.0182633      18.987912      282.70925    
    123000   1.0237957      18.710433      282.57791    
    124000   1.0036994      19.152173      282.32406    
    125000   0.97403461     18.849419      282.2494     
    126000   1.0257432      18.867436      282.10371    
    127000   0.98092579     19.023268      281.9109     
    128000   0.96219532     18.900205      281.74606    
    129000   0.9554415      18.744337      281.51902    
    130000   1.0325918      18.814765      281.37576    
    131000   0.97929179     19.053573      281.33958    
    132000   0.98863778     18.720898      281.20191    
    133000   0.97690642     18.661272      281.08886    
    134000   1.0237279      19.170009      280.8095     
    135000   0.98365909     18.903608      280.73695    
    136000   0.97563707     18.875682      280.6065     
    137000   0.99141346     18.746569      280.65399    
    138000   1.0419082      19.217034      280.35994    
    139000   1.0201586      18.959062      280.22719    
    140000   1.0001145      18.95621       279.97309    
    141000   1.0025005      19.079229      279.72089    
    142000   0.97921037     18.627488      279.77352    
    143000   1.0298338      19.044412      279.6687     
    144000   1.0056695      18.640732      279.55136    
    145000   1.011381       18.89066       279.79917    
    146000   1.0384266      18.807001      279.42051    
    147000   1.026965       19.111198      279.37857    
    148000   0.97498953     19.146535      279.30136    
    149000   1.002544       19.059858      279.16648    
    150000   0.99756423     18.897909      279.12509    
    151000   1.0163181      19.02825       278.90647    
    152000   0.94748847     18.968208      278.72877    
    153000   1.0073201      19.139392      278.46306    
    154000   0.97162897     18.583117      278.45978    
    155000   1.0330084      18.797468      278.28642    
    156000   1.0170299      19.062686      278.00576    
    157000   0.99819144     18.70662       277.69209    
    158000   0.96905639     19.818606      277.67449    
    159000   0.96301579     18.331705      277.67011    
    160000   1.0243655      18.985657      277.68754    
    161000   1.0336519      18.790577      277.66279    
    162000   1.0447945      18.972084      277.66248    
    163000   0.97380891     18.78832       277.60948    
    164000   0.95671088     18.889478      277.50477    
    165000   1.0003357      18.943445      277.43091    
    166000   0.96615126     18.595739      277.42018    
    167000   0.97410846     19.082624      277.24828    
    168000   1.0105272      19.039605      276.97694    
    169000   1.0052433      18.714451      276.90747    
    170000   0.97568132     18.795993      276.76452    
    171000   1.0381001      19.118398      276.47839    
    172000   1.0192747      18.815494      276.21328    
    173000   1.0170134      19.012513      275.89547    
    174000   1.0085658      19.140143      275.79632    
    175000   1.0240072      18.910171      275.75743    
    176000   1.0003962      19.479401      275.78363    
    177000   0.96074937     18.664959      275.67288    
    178000   1.0082153      18.849255      275.69265    
    179000   1.0285995      18.596275      275.41337    
    180000   1.0016843      19.028466      275.43281    
    181000   1.045615       18.795002      275.40565    
    182000   0.9911535      19.364304      275.39158    
    183000   1.0079865      19.073595      275.17061    
    184000   0.97509184     18.739888      274.87545    
    185000   0.98589828     18.807953      274.54738    
    186000   0.97570225     18.570939      274.31838    
    187000   0.95116032     18.76544       274.02102    
    188000   1.0090647      19.198476      273.90094    
    189000   0.99361097     19.120823      273.84751    
    190000   0.96400013     18.574925      273.7644     
    191000   1.0240969      19.276044      273.56427    
    192000   0.98863886     18.912441      273.39143    
    193000   0.98835017     19.211289      273.21715    
    194000   1.0077719      18.855318      273.10485    
    195000   1.0399879      19.177971      273.00861    
    196000   1.0297362      19.102764      272.99228    
    197000   0.99049534     19.002818      272.86882    
    198000   1.0007193      18.793953      272.69178    
    199000   0.99618146     18.629467      272.39503    
    200000   0.98783349     18.724385      272.29182    
    201000   1.0225598      18.91574       272.10323    
    202000   0.9948508      18.739851      271.81883    
    203000   1.005475       18.871554      271.66789    
    204000   1.007142       19.091324      271.49878    
    205000   0.9834102      18.982092      271.10089    
    206000   1.009364       19.188174      270.95873    
    207000   0.96278544     18.759571      270.68823    
    208000   1.0259159      18.847843      270.72398    
    209000   1.022887       19.252208      270.72596    
    210000   0.95035624     18.449229      270.70361    
    211000   1.0164814      19.260172      270.66735    
    212000   1.0158216      18.91719       270.45471    
    213000   0.99293367     18.610946      270.19103    
    214000   0.99788724     19.526159      270.06365    
    215000   0.98875374     18.786051      270.11876    
    216000   1.018444       18.983364      270.04954    
    217000   0.99554596     19.150789      269.87947    
    218000   0.99256736     19.540487      269.7485     
    219000   0.97780777     19.069844      269.74081    
    220000   1.0398664      18.960291      269.72003    
    221000   0.96019043     19.444529      269.72137    
    222000   1.0153007      18.981209      269.50323    
    223000   1.0437657      18.632439      269.35602    
    224000   0.9706518      19.329769      269.38488    
    225000   0.97510186     18.8537        269.21652    
    226000   1.0576848      18.862829      268.96839    
    227000   1.0169933      19.350691      268.99037    
    228000   0.98273466     18.712148      268.95543    
    229000   1.0014016      18.774531      268.90457    
    230000   0.99258062     19.489978      269.13042    
    231000   1.0011355      18.78696       268.74309    
    232000   0.98719943     18.909039      268.63544    
    233000   1.0171036      18.847709      268.54392    
    234000   0.97917248     19.105896      268.33521    
    235000   0.95456527     18.839043      268.04994    
    236000   1.0314972      18.980213      268.01138    
    237000   0.99310517     19.302251      267.91698    
    238000   0.9859795      19.04153       267.82463    
    239000   0.97453872     18.855115      267.42542    
    240000   0.98734559     18.796725      267.34053    
    241000   0.98723265     19.044317      267.29283    
    242000   1.0162195      19.141582      267.25879    
    243000   0.98057089     18.860122      267.11109    
    244000   1.0455095      18.917264      267.13557    
    245000   1.0074415      19.130294      267.09573    
    246000   0.94673881     18.824675      266.87066    
    247000   0.98426348     18.909192      266.83299    
    248000   1.0039589      19.222003      266.75894    
    249000   1.0181606      19.187493      266.61068    
    250000   0.98162914     18.454004      266.42514    
    251000   1.0264201      18.647437      266.35122    
    252000   1.022597       19.172203      266.07913    
    253000   0.99719696     18.868665      266.07454    
    254000   1.0468627      18.70975       266.05405    
    255000   0.98494583     19.279682      266.21347    
    256000   0.9793204      18.894883      266.21075    
    257000   0.99499616     19.405956      265.96604    
    258000   1.0077095      19.154066      265.81653    
    259000   0.99253602     19.500797      265.78881    
    260000   1.004827       19.243961      265.46415    
    261000   1.0122813      19.017536      265.25973    
    262000   0.99372823     18.969282      265.21406    
    263000   0.98590672     18.862882      265.07901    
    264000   0.98526071     18.424053      265.05025    
    265000   0.99911337     19.477115      265.04612    
    266000   0.98233483     19.068049      264.98707    
    267000   1.0406114      19.222438      265.00286    
    268000   1.0238989      19.110152      264.8839     
    269000   0.95071419     18.675763      264.65213    
    270000   1.0023986      18.752643      264.62044    
    271000   1.0038604      18.861807      264.34719    
    272000   0.96987747     18.994432      264.1833     
    273000   0.9863485      19.46739       263.9396     
    274000   1.0055141      19.360247      263.80005    
    275000   0.99692193     18.36289       263.81767    
    276000   0.99625361     19.016685      263.75928    
    277000   1.0025702      18.96527       263.66396    
    278000   0.9640773      18.658681      263.55246    
    279000   0.98260193     19.268217      263.65556    
    280000   0.98083061     18.974962      263.50459    
    281000   1.005686       18.98527       263.41477    
    282000   0.98070808     19.153388      263.00322    
    283000   0.97589386     18.895518      262.95428    
    284000   0.98419493     18.801549      262.87687    
    285000   0.99313962     18.962929      262.70517    
    286000   1.0253616      18.9037        262.63468    
    287000   1.0113789      19.066155      262.61323    
    288000   0.97610747     19.103559      262.65765    
    289000   1.0587381      18.835477      262.60205    
    290000   1.0110872      18.917766      262.54126    
    291000   1.018924       19.057354      262.48299    
    292000   1.0237351      18.861991      262.49073    
    293000   1.0001892      18.710723      262.26696    
    294000   1.0248159      19.11549       262.3043     
    295000   1.0130544      18.852341      262.39982    
    296000   0.97578309     19.101796      262.04651    
    297000   0.98876764     19.295756      261.96092    
    298000   1.0401286      19.281839      261.90529    
    299000   0.9918952      18.747775      261.75357    
    300000   0.96060537     19.215565      261.72236    
    301000   1.0466218      19.241743      261.63933    
    302000   0.99180815     19.232171      261.46976    
    303000   0.99838961     19.295163      261.44334    
    304000   1.025767       18.786963      261.27946    
    305000   1.004232       18.952376      261.11245    
    306000   1.025659       18.802053      261.23225    
    307000   0.98637435     19.056011      261.13273    
    308000   1.0039732      18.599465      260.94724    
    309000   1.0150511      18.885961      260.79648    
    310000   1.0438276      19.544912      260.69375    
    311000   1.0107361      18.649039      260.47326    
    312000   0.99275654     19.207288      260.57225    
    313000   0.99973395     19.508341      260.54012    
    314000   0.9827863      18.77585       260.49972    
    315000   1.0179417      19.339485      260.29125    
    316000   0.96882931     19.241748      260.24253    
    317000   0.96616879     18.793351      259.9493     
    318000   0.99463436     18.795654      259.71459    
    319000   1.0066681      19.133785      259.63116    
    320000   1.0045397      18.9439        259.57673    
    321000   1.0254855      19.158154      259.4096     
    322000   0.9934971      19.291995      259.41482    
    323000   1.0372638      18.874101      259.20059    
    324000   1.0116273      18.892354      259.22694    
    325000   0.99605258     19.143103      259.05505    
    326000   1.035357       18.648557      258.88631    
    327000   0.97482872     18.986115      258.78526    
    328000   0.98097977     18.894502      258.67893    
    329000   1.0181994      19.058557      258.65472    
    330000   0.95861284     18.919859      258.69599    
    331000   1.0107698      19.146676      258.83809    
    332000   1.0100909      19.03684       258.83315    
    333000   1.0046584      19.075784      258.67342    
    334000   0.95645168     19.328022      258.47618    
    335000   1.0143         19.047032      258.33477    
    336000   1.013428       19.288546      258.13639    
    337000   0.99728873     18.628014      257.8541     
    338000   1.0116165      18.380023      257.63306    
    339000   0.97404434     18.743065      257.55466    
    340000   1.0344629      19.174889      257.43684    
    341000   0.9939872      19.072373      257.2503     
    342000   1.0091698      18.895729      257.05371    
    343000   0.94547799     18.577086      256.77234    
    344000   1.0172798      19.202076      256.65214    
    345000   1.0068521      18.711164      256.38464    
    346000   1.0411392      19.271884      256.27227    
    347000   1.0020222      18.833611      256.18123    
    348000   0.98794505     19.04881       256.12156    
    349000   1.0128442      19.32406       256.12771    
    350000   0.98594084     19.54955       256.04166    
    351000   1.0311547      18.835024      255.91128    
    352000   1.0157792      19.978824      255.95946    
    353000   1.0133903      18.976691      255.64236    
    354000   1.0291448      18.823424      255.54629    
    355000   0.99829897     18.331317      255.71975    
    356000   0.97693399     18.718928      255.75413    
    357000   0.96369831     18.799331      255.58414    
    358000   1.0488225      19.149016      255.60246    
    359000   0.98803305     19.208725      255.47987    
    360000   1.040109       18.792519      255.3282     
    361000   1.0804422      19.390638      255.28745    
    362000   1.0380322      19.146752      255.12918    
    363000   0.99889636     18.960453      255.13025    
    364000   0.99280183     19.017318      254.9842     
    365000   0.98960737     19.418908      254.95354    
    366000   1.0052276      18.240663      255.08107    
    367000   0.99460322     18.834286      255.06288    
    368000   1.0421893      19.120397      254.96111    
    369000   0.98966994     19.03801       254.88299    
    370000   1.0185577      18.706386      254.52092    
    371000   1.0635417      19.244388      254.42322    
    372000   1.0353156      19.295712      254.19977    
    373000   0.9993326      18.953711      254.10915    
    374000   0.98446468     19.06849       254.02619    
    375000   1.01343        19.134882      253.85002    
    376000   1.0205447      18.803136      253.90354    
    377000   1.0193989      19.207913      253.9095     
    378000   1.0046564      18.670247      253.82308    
    379000   1.0256089      19.428342      253.80169    
    380000   0.98770237     18.698297      253.75522    
    381000   1.0059028      18.728583      253.64819    
    382000   0.9821816      18.864682      253.66755    
    383000   0.98501039     18.794299      253.47721    
    384000   0.98539097     19.416893      253.40184    
    385000   1.0222465      19.467823      253.41854    
    386000   1.0413772      18.795056      253.41131    
    387000   0.98806765     19.160863      253.20545    
    388000   0.96583169     18.963796      253.12039    
    389000   0.97227286     19.089696      252.98266    
    390000   1.008166       19.210207      252.77582    
    391000   1.0128787      19.291283      252.71374    
    392000   0.96786276     18.912313      252.63572    
    393000   1.0207141      18.805576      252.48961    
    394000   1.024325       19.151778      252.49461    
    395000   1.0138817      19.093184      252.44227    
    396000   0.99454093     19.145428      252.48941    
    397000   0.9771429      18.753478      252.52443    
    398000   0.97328159     18.959398      252.18919    
    399000   0.99359501     19.066658      251.93642    
    400000   0.99639689     18.951221      251.68084    
    401000   1.0104268      19.235418      251.60217    
    402000   0.9887383      18.750416      251.33461    
    403000   0.99712419     18.896706      251.25494    
    404000   1.0027936      18.704489      251.01966    
    405000   0.97345798     18.693089      250.94677    
    406000   0.99222828     18.886866      250.70944    
    407000   1.0057181      19.034724      250.63628    
    408000   0.97172989     19.014941      250.51936    
    409000   1.0151707      19.052248      250.45432    
    410000   1.0037194      19.540648      250.46768    
    411000   0.96667879     18.683753      250.28304    
    412000   1.0193082      19.019788      250.12662    
    413000   0.96889332     18.790932      249.8965     
    414000   0.99842058     18.786436      249.76145    
    415000   0.99118748     19.265641      249.56246    
    416000   1.0180803      19.085259      249.56989    
    417000   1.0072386      18.95759       249.67184    
    418000   0.98036894     19.03293       249.75041    
    419000   0.98218224     18.614997      249.78955    
    420000   0.98175505     19.098483      249.77493    
    421000   1.0239012      19.17568       249.48054    
    422000   1.0216099      19.393656      249.37046    
    423000   0.98630626     18.696246      249.26842    
    424000   0.98306591     19.013325      249.04877    
    425000   1.0420142      18.980716      248.91989    
    426000   1.0023863      18.771242      248.86325    
    427000   1.0065814      19.192823      248.80892    
    428000   0.97357039     18.934368      248.68937    
    429000   1.0243848      19.208713      248.58573    
    430000   1.0006734      19.094762      248.38776    
    431000   0.95928089     18.706554      248.2271     
    432000   1.0073487      18.995025      248.14002    
    433000   1.0352429      18.938392      247.93424    
    434000   1.0250835      19.577007      247.84666    
    435000   1.0118632      18.992783      247.75317    
    436000   1.0277714      18.887005      247.50468    
    437000   0.98345945     19.278477      247.42132    
    438000   0.99713668     18.710456      247.28442    
    439000   0.99587729     19.034777      247.08029    
    440000   1.0024247      18.992666      247.09778    
    441000   1.0222263      18.676896      246.81312    
    442000   1.0522974      19.089689      246.53269    
    443000   0.98577716     18.516446      246.54895    
    444000   0.99637015     18.603628      246.64356    
    445000   1.0392207      18.997615      246.55461    
    446000   1.0029392      18.801663      246.41146    
    447000   0.97069512     18.798398      246.29444    
    448000   0.99298554     19.642124      246.15683    
    449000   1.0214904      19.196584      245.85081    
    450000   1.0339551      19.470152      245.69302    
    451000   0.9686774      18.74182       245.793      
    452000   0.97628714     19.074699      245.80306    
    453000   1.031722       19.03269       245.83504    
    454000   0.97203209     18.572759      245.85297    
    455000   1.0062498      18.609959      245.65096    
    456000   1.0209739      19.581091      245.34063    
    457000   0.97148894     19.048982      245.16819    
    458000   1.0411117      19.448418      245.01528    
    459000   1.0106756      18.681826      244.74678    
    460000   1.0210579      18.992676      244.73273    
    461000   1.0328338      19.119995      244.73303    
    462000   1.0162483      18.987053      244.62017    
    463000   1.0213926      19.34545       244.60053    
    464000   0.99883558     19.129303      244.43333    
    465000   1.0118024      19.116705      244.16651    
    466000   0.99488751     18.769497      244.07859    
    467000   0.94457932     18.518735      243.94916    
    468000   1.0359433      18.83918       243.83882    
    469000   0.98462272     19.07185       243.86172    
    470000   1.0006633      18.734813      243.701      
    471000   1.0052255      19.280004      243.68       
    472000   1.0048921      19.061933      243.62189    
    473000   0.98059952     18.810514      243.49403    
    474000   1.0137852      18.966995      243.45423    
    475000   1.0005426      19.045757      243.44956    
    476000   1.0255218      19.146698      243.3129     
    477000   0.98050109     18.763815      243.3525     
    478000   1.0072412      18.58638       243.34369    
    479000   1.0001378      18.950237      243.30933    
    480000   0.98327152     18.904768      243.19536    
    481000   0.97643699     18.951957      242.99692    
    482000   1.0279416      19.373004      242.87543    
    483000   1.0068914      18.549026      242.71772    
    484000   1.0225011      18.72274       242.6874     
    485000   0.99023972     18.928023      242.69071    
    486000   1.0027857      18.650457      242.53139    
    487000   0.95719948     19.479229      242.36856    
    488000   0.95788672     19.008038      242.17924    
    489000   0.97934715     19.025433      242.10995    
    490000   0.98729786     19.231296      242.02651    
    491000   0.9696606      18.757711      241.99874    
    492000   1.0346302      19.117201      241.95743    
    493000   1.0106055      18.950827      241.93599    
    494000   1.0070784      18.856759      241.7993     
    495000   1.0413094      18.521006      241.70992    
    496000   1.0413895      19.147848      241.59977    
    497000   1.0265055      18.763549      241.56736    
    498000   0.9906474      19.200695      241.4135     
    499000   0.98458778     19.235253      241.49013    
    500000   0.99648307     19.097212      241.48273    
    501000   0.97123974     19.140295      241.18299    
    502000   0.98903329     18.883016      241.136      
    503000   0.98752746     18.757915      241.0046     
    504000   1.0110149      19.474089      240.83539    
    505000   0.98696792     18.608784      240.8752     
    506000   0.98482727     18.693692      240.76357    
    507000   0.99248743     18.77643       240.65061    
    508000   1.006792       18.937987      240.55694    
    509000   1.0207422      19.035454      240.4955     
    510000   1.0177267      19.41431       240.44451    
    511000   1.0477254      19.061485      240.363      
    512000   1.0096716      18.904121      240.42886    
    513000   1.0174224      18.793928      240.75012    
    514000   0.97894102     19.043025      240.55559    
    515000   1.0003312      18.856576      240.49358    
    516000   1.0049511      18.363094      240.49641    
    517000   1.0180838      18.63059       240.34136    
    518000   0.96304081     19.007517      240.30044    
    519000   0.94744835     19.05384       240.31344    
    520000   1.0315721      19.186         240.40893    
    521000   0.96661108     18.66553       240.19224    
    522000   0.99785743     19.08276       240.19413    
    523000   0.98408075     19.046997      239.90996    
    524000   0.95092183     18.949737      239.81744    
    525000   0.98231881     18.963389      239.74292    
    526000   1.0009752      18.833895      239.59485    
    527000   1.0077662      19.214158      239.43418    
    528000   1.0023671      18.895272      239.10167    
    529000   0.9844268      18.350123      239.09735    
    530000   1.0256536      19.012689      238.90118    
    531000   1.0159915      19.330628      238.70687    
    532000   1.0035353      18.961533      238.42287    
    533000   0.94988449     18.557694      238.46195    
    534000   0.94387468     18.851756      238.45637    
    535000   0.98970853     18.754671      238.35652    
    536000   0.98559977     18.826494      238.40331    
    537000   1.020889       19.430476      238.22384    
    538000   0.98851516     18.911471      238.0682     
    539000   0.96909748     19.076978      238.2825     
    540000   1.0402952      18.879969      238.21193    
    541000   1.0038125      19.109816      237.92101    
    542000   1.0055245      18.866697      237.90886    
    543000   0.99010301     19.516395      237.80396    
    544000   0.98818972     19.166672      237.61131    
    545000   1.0028761      19.52281       237.52602    
    546000   1.0160339      19.057986      237.35201    
    547000   1.0152428      18.691669      237.22968    
    548000   0.94941764     18.752617      236.86123    
    549000   0.98458211     19.349712      236.5889     
    550000   1.0362461      18.751864      236.52482    
    551000   1.0353745      19.151695      236.29891    
    552000   0.96478972     18.591608      236.36155    
    553000   1.0126151      18.665159      236.27009    
    554000   0.9756271      19.085498      236.00578    
    555000   1.0066743      18.916431      235.92277    
    556000   1.0125049      18.647379      235.84333    
    557000   0.98420115     18.393994      235.80359    
    558000   1.0129071      18.875005      235.67962    
    559000   0.99120477     18.909014      235.51811    
    560000   0.96627546     19.194771      235.47572    
    561000   1.0128458      19.200727      235.39817    
    562000   1.006341       19.296444      235.32179    
    563000   1.0202307      18.818787      235.17015    
    564000   0.98159025     18.681708      234.94788    
    565000   0.95209429     18.730675      234.89564    
    566000   1.018103       18.697683      234.99455    
    567000   0.9978673      19.053636      235.01526    
    568000   0.97593955     19.150116      234.85712    
    569000   1.0102241      18.740683      234.82266    
    570000   0.93734619     19.146279      234.80211    
    571000   1.0500427      19.034779      234.7133     
    572000   1.002987       19.034522      234.58253    
    573000   0.99803839     18.27017       234.51902    
    574000   0.99187113     18.605767      234.30199    
    575000   1.0256636      18.690907      234.15158    
    576000   1.0102722      19.494428      233.99313    
    577000   1.0191758      18.850654      233.91165    
    578000   0.98526541     19.390604      233.89362    
    579000   1.0575514      19.196457      233.94899    
    580000   1.0018158      19.093425      233.6944     
    581000   0.99195        18.734982      233.63609    
    582000   1.0098267      19.044181      233.43439    
    583000   0.99576781     19.154578      233.39243    
    584000   1.0342741      19.15182       233.16766    
    585000   0.9978512      18.850475      233.08073    
    586000   1.0029658      18.432572      233.16154    
    587000   0.95749812     18.563983      232.86869    
    588000   0.97931539     19.060033      232.72311    
    589000   0.97838939     18.803975      232.51971    
    590000   0.99063447     18.947481      232.71591    
    591000   1.0131183      18.673824      232.59231    
    592000   1.0211985      19.140131      232.56269    
    593000   0.97383012     18.242799      232.4419     
    594000   1.004237       18.705276      232.61776    
    595000   1.006538       19.007096      232.43382    
    596000   0.97927998     18.649348      232.28185    
    597000   1.0094707      19.081242      232.39269    
    598000   0.95120104     19.152897      232.38927    
    599000   0.99814719     18.499918      232.23037    
    600000   1.0009118      19.017834      232.28487    
    601000   1.0129365      18.812041      232.28976    
    602000   1.0063937      19.066815      232.30183    
    603000   0.99666022     19.157695      232.33339    
    604000   1.002057       18.984107      232.10773    
    605000   1.0452113      18.685925      232.0507     
    606000   0.99441752     18.820755      232.11494    
    607000   0.96022194     18.62722       232.06267    
    608000   0.986246       18.874958      231.98717    
    609000   1.0097047      18.979281      231.87749    
    610000   1.0078539      18.653655      231.72052    
    611000   0.98369501     19.138028      231.52848    
    612000   1.0450153      19.199797      231.27539    
    613000   1.0465981      19.160029      231.34672    
    614000   0.99722853     18.976207      231.29157    
    615000   1.0411135      18.617771      231.07786    
    616000   0.95455243     19.499077      230.93403    
    617000   1.0404438      19.116809      230.80658    
    618000   1.0030732      18.842293      230.86646    
    619000   1.0042551      19.052537      230.68626    
    620000   0.98527001     19.081415      230.5599     
    621000   1.0221076      19.132733      230.54442    
    622000   1.0050572      18.656807      230.38116    
    623000   0.98316075     19.037109      230.23976    
    624000   0.99802023     19.082002      230.28464    
    625000   1.0007552      18.586816      230.22948    
    626000   1.0051539      18.935582      230.08437    
    627000   0.98536596     18.545533      230.05449    
    628000   0.99031158     18.917856      229.98678    
    629000   0.97523054     19.038221      230.00082    
    630000   0.98770508     18.981759      229.9787     
    631000   0.98254229     19.015407      229.89514    
    632000   0.95568103     18.630519      229.8458     
    633000   0.98977458     18.990149      229.7933     
    634000   0.98819611     18.622423      229.7372     
    635000   1.0055857      18.762661      229.85338    
    636000   0.99427604     19.079716      229.84441    
    637000   0.99317324     18.756174      229.73966    
    638000   1.0330139      19.526955      229.41732    
    639000   0.96679068     18.924162      229.27361    
    640000   0.95685137     18.949239      229.24372    
    641000   0.97205329     18.770735      229.29066    
    642000   1.0060829      18.63425       229.24599    
    643000   0.98476447     19.032261      229.21653    
    644000   0.96936552     18.725005      229.15861    
    645000   0.99789843     18.663933      228.90235    
    646000   1.0032631      18.536557      228.81499    
    647000   0.9890782      18.691935      228.66145    
    648000   0.97507415     18.84006       228.68296    
    649000   0.99699375     19.271026      228.5284     
    650000   0.98568809     18.903771      228.61374    
    651000   0.98330464     18.530486      228.54441    
    652000   1.0498536      18.727583      228.50302    
    653000   0.97436281     18.851643      228.43752    
    654000   0.9979301      18.804414      228.35786    
    655000   1.0119049      18.803433      228.36168    
    656000   1.0016483      18.648978      228.26168    
    657000   1.0304723      18.613853      228.10573    
    658000   0.97686425     18.920036      228.26141    
    659000   0.97933325     18.593946      228.33275    
    660000   0.9984743      18.265887      228.4383     
    661000   1.0010218      19.170155      228.31871    
    662000   1.0044621      19.128875      228.12979    
    663000   0.96719498     18.73374       228.26947    
    664000   1.0140702      18.912634      228.19124    
    665000   1.0138668      18.624304      228.19806    
    666000   1.0402655      19.234136      228.21272    
    667000   1.0193966      19.021294      228.13708    
    668000   1.0214065      18.719389      228.06516    
    669000   0.98451143     18.650287      228.05765    
    670000   1.0356148      18.957013      227.9217     
    671000   1.0376499      19.355739      227.63928    
    672000   0.99438855     19.176546      227.5529     
    673000   1.0353876      18.833994      227.35388    
    674000   0.95727679     18.820188      227.18646    
    675000   0.93822247     18.645509      227.12923    
    676000   1.0020364      18.364622      227.17766    
    677000   0.98437058     19.068786      227.16401    
    678000   0.92186521     18.381713      226.9606     
    679000   0.99079434     18.816118      226.83166    
    680000   1.0120744      19.348934      226.74192    
    681000   0.96797994     18.871497      226.72616    
    682000   0.98661717     18.797627      226.4113     
    683000   1.024407       19.336346      226.17326    
    684000   1.019886       18.763911      225.94168    
    685000   1.0105951      19.283172      225.79781    
    686000   1.0087108      19.168343      225.57882    
    687000   0.99729729     18.889274      225.42237    
    688000   1.009596       18.721955      225.27205    
    689000   0.99088627     19.088196      225.15578    
    690000   1.0314594      18.878982      225.07205    
    691000   1.0070552      18.863942      224.86662    
    692000   1.0395735      18.812099      224.7746     
    693000   1.0016643      19.116682      224.78559    
    694000   1.0174322      18.82484       224.69601    
    695000   0.94247937     18.416094      224.56238    
    696000   1.0054218      19.156303      224.31864    
    697000   0.99888102     19.28857       224.40983    
    698000   0.99084664     18.534933      224.4615     
    699000   1.0130382      18.738519      224.35435    
    700000   1.0227586      18.724072      224.31571    
    701000   1.0221514      18.769762      224.28106    
    702000   0.96930668     18.682804      224.32906    
    703000   0.99677924     19.242364      224.30369    
    704000   1.0503774      19.236702      224.0916     
    705000   1.0085299      19.034292      224.16425    
    706000   1.0038299      19.15506       224.05148    
    707000   0.94347055     18.783341      223.86065    
    708000   0.98534168     18.356514      223.68894    
    709000   0.94924825     18.944403      223.64488    
    710000   0.99650341     19.14095       223.37897    
    711000   1.0163916      18.371156      223.41388    
    712000   1.0288094      19.182435      223.22839    
    713000   0.98944559     18.757992      223.12876    
    714000   0.96028789     18.734603      223.10377    
    715000   1.0053555      18.549626      223.16444    
    716000   0.97989255     18.737316      223.07334    
    717000   0.97213456     18.662052      222.8571     
    718000   0.977762       18.574919      222.68256    
    719000   1.0204573      19.209216      222.61261    
    720000   1.0061111      18.588035      222.57733    
    721000   1.0096148      18.891282      222.34113    
    722000   1.0333968      18.862087      222.20644    
    723000   0.951258       19.718001      222.07328    
    724000   0.99174521     18.790097      221.76112    
    725000   0.98025125     17.996221      221.79029    
    726000   0.99656253     18.570049      221.76032    
    727000   1.0314005      19.209218      221.56664    
    728000   0.99540434     18.751034      221.52908    
    729000   0.99343791     18.936031      221.52639    
    730000   0.98118685     18.839459      221.43593    
    731000   0.96724586     18.834193      221.29083    
    732000   1.02957        18.770249      221.09291    
    733000   0.98677793     18.398285      221.12697    
    734000   1.0039269      18.931475      221.01055    
    735000   1.0491881      18.891931      221.02859    
    736000   1.0172502      18.760316      220.92184    
    737000   1.0147507      18.752369      220.86951    
    738000   1.038306       19.115922      221.0272     
    739000   1.0258235      19.066007      220.76948    
    740000   1.0110737      18.768749      220.89909    
    741000   0.98014841     18.036399      220.93703    
    742000   0.99542472     18.83139       220.62396    
    743000   0.99644532     18.511289      220.349      
    744000   1.0176811      18.709566      220.23262    
    745000   1.006584       18.607631      219.92011    
    746000   0.97121717     19.487091      219.6041     
    747000   1.0145776      18.697871      219.62366    
    748000   0.99487736     19.040856      219.63871    
    749000   1.0076604      18.728865      219.58203    
    750000   1.0060225      18.701057      219.51097    
    751000   1.0044363      18.865798      219.22139    
    752000   1.0041769      19.111354      219.39401    
    753000   0.97893722     19.432301      219.49356    
    754000   0.98754005     18.65127       219.39561    
    755000   0.99461098     18.689394      219.42225    
    756000   1.0194673      18.721978      219.42878    
    757000   1.0150148      18.675583      219.40042    
    758000   0.9639103      18.991523      219.26025    
    759000   0.97529841     18.89427       219.11439    
    760000   0.9901634      18.519552      219.15274    
    761000   0.96922027     18.339617      219.15728    
    762000   1.0172666      19.060768      218.92012    
    763000   0.95908872     18.301003      219.00698    
    764000   0.9801171      18.624782      218.70572    
    765000   0.97492915     18.564042      218.42448    
    766000   1.0086132      18.593991      218.16095    
    767000   0.98253231     18.57251       217.93624    
    768000   0.97251743     18.739083      217.58539    
    769000   1.0041954      18.449299      217.51609    
    770000   1.0025393      18.53062       217.61034    
    771000   0.98554686     18.90747       217.66676    
    772000   0.99323661     18.230205      217.64079    
    773000   0.96738061     18.430582      217.72645    
    774000   1.0119009      18.794524      217.76333    
    775000   0.99116638     18.665121      217.66739    
    776000   1.0085667      18.78088       217.64031    
    777000   0.99192218     18.680936      217.37631    
    778000   1.0790691      18.783477      217.25568    
    779000   0.97929802     19.000845      217.26497    
    780000   0.99863675     19.14296       217.36028    
    781000   1.0167274      18.278479      217.31335    
    782000   1.0168599      18.694357      217.16088    
    783000   0.92655625     18.633532      216.94279    
    784000   0.993957       18.615998      216.77032    
    785000   1.0112845      18.943112      216.7037     
    786000   0.97104666     18.700711      216.83712    
    787000   1.0250384      18.863977      216.63553    
    788000   1.0017914      18.511536      216.59802    
    789000   0.99158736     18.714755      216.481      
    790000   1.0284574      18.683402      216.37194    
    791000   1.0033941      19.095309      216.25773    
    792000   0.98869867     18.616869      216.16047    
    793000   0.99140662     18.122493      216.02892    
    794000   0.9728025      19.152121      215.84644    
    795000   0.98406244     18.812492      215.76991    
    796000   1.0190642      18.890694      215.74393    
    797000   1.0168798      19.021933      215.51175    
    798000   1.0160584      18.81047       215.52681    
    799000   0.97814167     18.786274      215.42852    
    800000   0.9929314      18.767399      215.35497    
    801000   1.0272689      18.715964      214.98268    
    802000   0.98746982     18.664688      214.86835    
    803000   0.99776117     18.501436      214.66165    
    804000   0.99946386     19.032716      214.60476    
    805000   1.0059174      19.304388      214.57459    
    806000   1.037284       18.756206      214.53497    
    807000   1.0278193      18.366156      214.36152    
    808000   1.0142616      18.536482      214.12069    
    809000   0.9922771      18.78966       214.1249     
    810000   1.0500619      18.953381      214.0315     
    811000   1.0291382      19.054713      214.00833    
    812000   1.0221399      18.389947      214.08062    
    813000   1.0174082      18.956248      214.05615    
    814000   1.0095648      18.873677      213.89168    
    815000   0.97466741     18.407662      213.81083    
    816000   0.98487999     18.585561      213.7125     
    817000   1.0213636      19.010022      213.50933    
    818000   0.9944539      18.767485      213.45535    
    819000   0.9687552      18.461173      213.3533     
    820000   0.97264319     18.534907      213.27293    
    821000   1.0073391      18.957411      213.14131    
    822000   1.0314277      18.602994      212.97334    
    823000   0.97669461     18.544435      212.84735    
    824000   0.99578487     18.6586        212.71714    
    825000   1.0370245      18.935165      212.67123    
    826000   0.97963673     18.459734      212.40447    
    827000   0.98175904     18.895293      212.29096    
    828000   0.97915406     18.402977      212.02841    
    829000   1.023884       19.036082      211.6304     
    830000   1.0029392      18.872938      211.38227    
    831000   1.0030103      18.71767       211.3841     
    832000   0.99168277     18.946124      211.32109    
    833000   1.0241517      18.51084       211.3487     
    834000   0.94634552     18.962509      211.24138    
    835000   0.97103895     18.644328      211.21926    
    836000   1.0014002      19.001395      211.14002    
    837000   0.98859033     18.761218      211.37549    
    838000   1.0235977      18.51836       211.4932     
    839000   0.96223684     18.54395       211.76669    
    840000   0.97666673     18.625858      211.66865    
    841000   1.031252       19.214613      211.54653    
    842000   0.99465899     18.452552      211.43799    
    843000   1.0068934      18.972476      211.32987    
    844000   0.99322777     18.435747      211.16877    
    845000   1.0258193      19.075367      211.07975    
    846000   0.96496993     19.135306      210.97716    
    847000   0.98422665     19.261422      210.7488     
    848000   0.96940312     18.801664      210.5077     
    849000   0.98386299     18.513343      210.44709    
    850000   1.018249       19.019648      210.20447    
    851000   1.0238222      18.556024      210.11393    
    852000   0.99626742     18.294797      210.17754    
    853000   0.9858439      18.462935      210.10551    
    854000   1.0129592      18.855265      209.96984    
    855000   1.0224491      19.254673      209.92349    
    856000   1.0240543      18.962989      209.80397    
    857000   0.99793968     18.996003      209.87082    
    858000   0.99501595     18.765085      209.91134    
    859000   0.97902959     18.512118      209.81634    
    860000   1.0054733      18.595724      209.63449    
    861000   0.98302039     18.657289      209.60774    
    862000   0.9975276      18.924802      209.60444    
    863000   0.99272778     18.516783      209.44153    
    864000   0.95033347     18.978975      209.20773    
    865000   1.0400763      19.175827      209.15397    
    866000   0.97237521     18.623047      208.83726    
    867000   1.0160139      19.044287      208.50361    
    868000   0.97839757     18.774133      208.53162    
    869000   1.0267309      18.531777      208.29901    
    870000   0.98025078     18.423824      208.46268    
    871000   1.0053894      18.953984      208.15001    
    872000   0.99527433     18.985953      208.05007    
    873000   1.0126332      18.47046       207.94979    
    874000   0.99240838     18.804626      207.84249    
    875000   1.0405323      18.657091      207.81418    
    876000   0.99498822     18.639675      207.77404    
    877000   1.0305035      19.152189      207.77513    
    878000   0.98639372     18.675426      207.78569    
    879000   1.0145776      18.36008       207.64384    
    880000   0.98031306     18.510022      207.66033    
    881000   0.99489928     18.645349      207.49847    
    882000   1.0421462      18.742463      207.46326    
    883000   1.042178       18.57287       207.44557    
    884000   1.0385241      18.942586      207.48481    
    885000   1.0046219      18.522342      207.63427    
    886000   0.96115225     18.349702      207.43821    
    887000   1.0285514      18.837077      207.41642    
    888000   0.98204213     18.709489      207.23621    
    889000   1.0046317      19.068588      207.15412    
    890000   1.0226053      18.925302      206.9245     
    891000   1.0355957      19.033587      206.87488    
    892000   1.0474405      18.650119      206.92893    
    893000   0.96842721     18.400339      206.84259    
    894000   0.97591335     18.704333      206.60069    
    895000   1.007624       18.579159      206.39272    
    896000   1.0131717      18.675559      206.07991    
    897000   1.004751       18.276686      206.28178    
    898000   1.0170171      18.704606      206.35703    
    899000   1.0070276      18.700561      206.16305    
    900000   0.99869617     18.856886      206.12996    
    901000   1.0018974      18.396697      206.09205    
    902000   0.96559291     18.429965      206.03657    
    903000   0.9874732      19.119437      205.9905     
    904000   1.0068972      18.620202      205.9995     
    905000   1.0106003      18.635452      205.96954    
    906000   1.0050147      18.423103      205.98066    
    907000   1.0028253      18.470874      205.58382    
    908000   0.97120024     18.464004      205.30301    
    909000   0.98992558     18.509204      205.28887    
    910000   0.9898043      18.95998       205.05799    
    911000   0.99045466     18.611266      205.02746    
    912000   1.0242828      19.037819      204.93153    
    913000   0.992924       18.350607      204.90571    
    914000   0.99130641     18.546671      204.78531    
    915000   1.0005766      19.186004      204.63715    
    916000   1.0448955      18.696         204.68584    
    917000   0.96647554     18.748231      204.52673    
    918000   1.0208207      18.86112       204.50197    
    919000   0.96228806     18.37432       204.37291    
    920000   0.99593776     18.382396      204.22154    
    921000   1.0062538      19.27869       203.9063     
    922000   0.98289533     18.290458      203.76684    
    923000   1.0250021      18.930796      203.87152    
    924000   1.0429246      19.343065      203.9668     
    925000   1.0419059      19.065209      203.96428    
    926000   0.96577583     18.307466      203.72216    
    927000   0.94411154     18.4705        203.60751    
    928000   1.0022391      18.920715      203.53432    
    929000   1.0118007      18.875333      203.42274    
    930000   0.98925377     18.844139      203.35066    
    931000   1.029431       18.423666      203.37308    
    932000   1.0060087      18.677571      203.21205    
    933000   0.95841372     18.565335      202.96245    
    934000   0.95047825     18.361486      202.8891     
    935000   0.99403541     18.969316      202.76274    
    936000   1.0119548      18.04556       202.71292    
    937000   0.97750685     17.620847      202.56006    
    938000   0.96744499     18.316162      202.61644    
    939000   0.9708551      18.294089      202.58806    
    940000   0.989134       19.088703      202.48425    
    941000   1.0005955      19.396873      202.45746    
    942000   0.9926993      18.933286      202.53567    
    943000   0.99027842     18.622975      202.4856     
    944000   0.97878232     18.537482      202.5239     
    945000   0.97640885     18.287804      202.48465    
    946000   0.98687176     18.597322      202.48097    
    947000   0.99933919     18.62012       202.64917    
    948000   1.0212551      19.075685      202.41606    
    949000   1.0086224      18.899451      202.18287    
    950000   0.99312        19.168194      201.86491    
    951000   0.95399853     18.480235      201.54501    
    952000   1.0379926      18.468764      201.44172    
    953000   1.0371466      18.668025      201.21666    
    954000   0.99931955     18.428856      201.03843    
    955000   1.008037       18.241971      201.06169    
    956000   1.0017387      18.440179      201.05348    
    957000   0.982435       18.825221      200.97832    
    958000   1.0064411      18.728084      200.83852    
    959000   0.98809183     18.76121       200.83204    
    960000   0.93129845     18.778155      200.60377    
    961000   1.0436841      18.978319      200.38963    
    962000   1.001197       18.609675      200.11405    
    963000   1.0222224      18.044661      199.99229    
    964000   1.0082542      19.198993      199.85243    
    965000   1.0169662      19.070105      199.87931    
    966000   0.99138987     18.781533      199.83641    
    967000   0.99778291     18.070353      199.70972    
    968000   0.99634097     18.47363       199.59854    
    969000   1.0059958      18.880834      199.33067    
    970000   0.97033018     18.214889      199.38713    
    971000   1.0302553      18.336486      199.28501    
    972000   0.95288744     18.680399      199.38674    
    973000   1.0108535      18.65591       199.15811    
    974000   1.0207101      18.200595      199.11869    
    975000   0.9859823      18.345074      199.08529    
    976000   1.0057194      18.642578      199.03348    
    977000   0.9785728      18.719298      199.07447    
    978000   1.0110933      18.528718      199.20146    
    979000   0.98993915     18.743037      199.38064    
    980000   1.0206565      18.744846      199.32802    
    981000   1.0238567      18.426528      199.26767    
    982000   1.0228456      18.517759      199.2616     
    983000   1.0180161      18.829003      199.01702    
    984000   1.0076481      18.787152      198.93207    
    985000   0.95632528     18.386911      198.7682     
    986000   1.0096553      18.624817      198.86837    
    987000   0.9988563      18.419445      198.82246    
    988000   0.97571776     18.100176      198.80364    
    989000   1.0472536      18.388967      198.75623    
    990000   1.0164376      18.904684      198.73213    
    991000   0.99187298     19.39975       198.51128    
    992000   0.96751574     18.291745      198.44253    
    993000   0.9629443      18.341535      198.18127    
    994000   0.96302643     18.472575      198.09055    
    995000   0.98023674     18.293979      198.15117    
    996000   0.96155486     18.558294      198.14751    
    997000   1.0481063      18.787297      197.88874    
    998000   0.96186664     18.759006      197.84952    
    999000   0.98460286     18.724773      197.82004    
   1000000   0.99694164     18.984075      197.74661    
   1001000   1.0355756      19.072741      197.57441    
   1002000   0.99665382     18.918869      197.64135    
   1003000   1.0048096      18.965858      197.66205    
   1004000   0.96748064     18.266909      197.58888    
   1005000   1.0002925      18.804287      197.55745    
   1006000   1.0343245      18.513576      197.24657    
   1007000   0.99738523     18.370734      197.16863    
   1008000   1.0052259      18.685747      197.17491    
   1009000   0.99658158     18.566018      197.16359    
   1010000   0.96268906     18.265404      197.2283     
   1011000   0.98148145     18.226797      197.25504    
   1012000   1.0121784      18.524356      197.11024    
   1013000   1.0207815      18.747102      197.12825    
   1014000   0.99458583     18.539114      197.23039    
   1015000   1.0489945      18.798971      197.1291     
   1016000   1.029955       18.428331      196.97539    
   1017000   0.97952198     18.237039      196.83756    
   1018000   1.0117086      18.817156      196.71886    
   1019000   1.0242143      18.958454      196.59764    
   1020000   1.0105274      19.161535      196.60533    
   1021000   1.0706797      18.606122      196.61171    
   1022000   1.0049079      18.547444      196.5439     
   1023000   1.0151202      18.73981       196.52503    
   1024000   1.0154153      18.552297      196.37538    
   1025000   0.98820723     19.213314      196.20825    
   1026000   0.98268171     18.190749      196.17912    
   1027000   1.01382        18.690961      196.15448    
   1028000   1.0038823      18.243822      196.06176    
   1029000   1.0280365      19.315055      196.18598    
   1030000   1.0023256      18.721515      196.04026    
   1031000   1.0053523      18.293413      195.95871    
   1032000   0.99121113     18.495101      195.99833    
   1033000   0.97397929     18.750574      195.89356    
   1034000   1.0016305      18.364658      195.7093     
   1035000   0.96508652     18.277554      195.73298    
   1036000   0.98810701     18.160614      195.91844    
   1037000   1.0022086      18.881467      195.77801    
   1038000   1.0533879      19.045514      195.68648    
   1039000   1.0682039      18.87926       195.60235    
   1040000   0.98468693     18.255163      195.5448     
   1041000   0.99471366     18.766354      195.40721    
   1042000   1.0007549      18.618134      195.28263    
   1043000   0.99548045     18.4479        195.21677    
   1044000   1.0151455      18.730765      195.13083    
   1045000   0.99561196     18.332432      195.18731    
   1046000   1.0259561      18.830176      195.24155    
   1047000   1.0222729      18.736343      195.15615    
   1048000   0.98844015     18.384549      195.00079    
   1049000   0.94966231     18.601052      194.95624    
   1050000   0.99003536     18.454571      195.10661    
   1051000   0.99441138     18.992912      195.20447    
   1052000   1.0131145      18.563099      195.17928    
   1053000   0.99351814     18.518712      194.9989     
   1054000   0.98354431     18.860211      194.80511    
   1055000   0.98330933     18.505402      194.61236    
   1056000   1.0376538      18.616177      194.55138    
   1057000   1.0145445      19.392899      194.57384    
   1058000   1.0448662      18.304238      194.40732    
   1059000   0.98748037     18.701301      194.52508    
   1060000   0.96609202     18.616587      194.22502    
   1061000   1.0192743      18.784896      194.39967    
   1062000   1.0235887      18.479826      194.33047    
   1063000   0.99824985     18.696656      194.28824    
   1064000   0.99886247     18.235199      194.23103    
   1065000   1.0094728      18.699525      194.17812    
   1066000   0.99951663     18.610149      194.14641    
   1067000   1.0254845      18.569926      194.02958    
   1068000   0.99920793     19.062798      193.95604    
   1069000   1.0110656      18.829357      193.65433    
   1070000   1.0293013      18.668114      193.5903     
   1071000   0.9736529      18.317258      193.61046    
   1072000   0.99397936     18.434748      193.68903    
   1073000   1.0131136      18.327617      193.76858    
   1074000   0.97224692     18.442247      193.77625    
   1075000   1.007401       18.499638      193.6813     
   1076000   1.0164012      18.094128      193.61042    
   1077000   1.0153084      18.430785      193.52825    
   1078000   0.97667368     18.325621      193.36375    
   1079000   0.97540248     18.970056      193.33508    
   1080000   0.98544422     18.33427       193.46507    
   1081000   0.99389814     18.77815       193.32173    
   1082000   0.95945654     18.071179      193.25918    
   1083000   1.0013107      18.352793      193.19368    
   1084000   1.0120069      18.506219      193.11221    
   1085000   1.0057307      18.621115      193.15526    
   1086000   1.0303771      18.617051      193.31167    
   1087000   0.97678626     18.411109      192.95242    
   1088000   1.0179362      18.677989      192.8979     
   1089000   1.022327       18.414933      192.80423    
   1090000   1.0526826      18.740902      192.98191    
   1091000   1.0401426      18.70754       192.90125    
   1092000   0.9976115      18.571951      192.69026    
   1093000   1.0145529      18.916511      192.44783    
   1094000   0.98984007     19.30655       192.59809    
   1095000   0.98734448     18.283197      192.5611     
   1096000   0.99699875     18.984599      192.23804    
   1097000   1.0205715      18.718614      192.32943    
   1098000   1.0460813      18.328328      191.80941    
   1099000   0.9634423      18.109492      191.72536    
   1100000   1.0130437      18.993885      191.67689    
   1101000   1.0236898      18.583783      191.76877    
   1102000   1.0056568      18.583165      191.70476    
   1103000   1.0037679      18.303745      191.39771    
   1104000   1.0238106      18.787609      191.59641    
   1105000   0.97856695     18.801985      191.52832    
   1106000   1.0420157      18.819954      191.58205    
   1107000   1.018818       18.064318      191.4803     
   1108000   1.0157657      19.019727      191.41312    
   1109000   1.025409       18.720307      191.43535    
   1110000   1.0156138      18.435234      191.22214    
   1111000   1.0260912      18.55275       191.18299    
   1112000   0.98551679     18.748943      191.05956    
   1113000   1.0014636      18.604349      191.01442    
   1114000   0.98211193     18.426614      190.80746    
   1115000   1.009457       18.564766      190.7335     
   1116000   0.99865281     18.533799      190.4773     
   1117000   0.99157339     18.430718      190.38596    
   1118000   1.0006726      18.637344      190.08724    
   1119000   1.0211676      18.560058      189.96892    
   1120000   1.0112364      18.800954      189.77452    
   1121000   1.0007074      18.532429      189.59193    
   1122000   0.98594477     18.399799      189.3361     
   1123000   0.99087088     18.872545      189.28844    
   1124000   0.97934472     18.234728      188.98303    
   1125000   1.0226037      18.593647      188.86723    
   1126000   0.9851845      18.411609      188.89333    
   1127000   1.0330246      18.58699       188.90211    
   1128000   0.97873889     19.049863      188.8402     
   1129000   0.99821533     18.746419      188.56551    
   1130000   1.0253631      18.408806      188.3642     
   1131000   0.97484641     18.293687      188.25048    
   1132000   1.0367618      18.620445      188.0225     
   1133000   0.99630832     18.551748      187.82393    
   1134000   0.99622785     18.412066      187.94121    
   1135000   1.0019177      18.281725      187.82005    
   1136000   0.99517149     18.217831      187.81427    
   1137000   1.0188829      18.273023      187.87726    
   1138000   0.98165748     18.529428      187.72131    
   1139000   0.97883113     18.707288      187.74958    
   1140000   0.97240567     18.255543      187.74365    
   1141000   1.0213005      18.441832      187.57013    
   1142000   1.0056162      18.326166      187.51218    
   1143000   1.0108755      18.810712      187.64973    
   1144000   1.0103532      18.603949      187.76515    
   1145000   1.0414394      18.406436      187.75489    
   1146000   0.98173254     18.077547      187.58348    
   1147000   1.0027161      18.237722      187.53607    
   1148000   1.0012756      18.617938      187.35678    
   1149000   0.99860515     18.381363      187.39426    
   1150000   1.021658       18.691074      187.3971     
   1151000   0.97510121     18.680084      187.12559    
   1152000   0.95747899     18.555642      187.06635    
   1153000   0.97960233     18.206402      187.03317    
   1154000   1.0100363      18.227766      187.14391    
   1155000   1.0008352      18.967594      187.04916    
   1156000   0.98658025     18.174422      186.90082    
   1157000   1.0013125      18.285516      186.93162    
   1158000   1.0058425      18.356167      186.73612    
   1159000   1.0363246      18.223525      186.72769    
   1160000   0.98551341     18.139064      186.67055    
   1161000   0.98529028     18.887051      186.68707    
   1162000   1.0078378      18.768928      186.61035    
   1163000   1.0101543      18.40156       186.52035    
   1164000   1.003717       18.883062      186.52716    
   1165000   1.0001435      18.677544      186.55241    
   1166000   0.96384703     18.200447      186.46153    
   1167000   1.0127384      18.696739      186.46029    
   1168000   1.0294154      18.539628      186.40215    
   1169000   0.99461651     18.19379       186.2698     
   1170000   1.0101315      18.455669      186.11194    
   1171000   1.0096142      18.94053       186.04739    
   1172000   1.0076701      18.421646      185.81944    
   1173000   1.0088134      18.646147      185.75183    
   1174000   1.012636       18.740791      185.68668    
   1175000   0.96370998     18.680133      185.49292    
   1176000   1.0449902      18.476318      185.3831     
   1177000   1.0089567      18.784625      185.33071    
   1178000   0.97312122     18.140111      185.23103    
   1179000   1.000455       18.204099      185.25497    
   1180000   1.0133226      18.134081      185.0706     
   1181000   1.0089087      18.385685      184.90529    
   1182000   1.0053673      18.461609      185.00899    
   1183000   0.99082006     18.281361      185.11974    
   1184000   1.0355519      18.816235      185.03933    
   1185000   0.9941397      18.683646      184.85867    
   1186000   1.0286446      18.305655      184.84231    
   1187000   0.97055311     18.87824       184.68516    
   1188000   0.9903544      17.894495      184.59703    
   1189000   0.96672185     18.319706      184.43064    
   1190000   0.96512972     18.306961      184.21639    
   1191000   1.0140222      18.321925      184.11468    
   1192000   1.0400015      18.783752      184.08348    
   1193000   1.0185246      18.389522      184.11942    
   1194000   1.0198903      18.482799      183.9666     
   1195000   1.0219801      18.358161      183.83825    
   1196000   0.9970412      18.331674      183.77875    
   1197000   0.98656692     19.032622      183.61376    
   1198000   0.99093918     18.090282      183.3263     
   1199000   0.97460446     17.813351      183.15608    
   1200000   1.0056442      18.410749      182.9498     
   1201000   1.0089668      18.821106      183.04685    
   1202000   0.99383607     18.708968      182.96704    
   1203000   1.0031814      18.571731      182.75177    
   1204000   0.98769173     18.162986      182.49902    
   1205000   0.98024755     18.705821      182.31089    
   1206000   0.94381107     17.789656      182.10765    
   1207000   0.98507148     18.182963      182.00844    
   1208000   1.0415462      18.525574      181.7514     
   1209000   0.99362453     18.462977      181.51198    
   1210000   1.0193847      18.704464      181.44246    
   1211000   0.95677072     18.876916      181.48189    
   1212000   0.97458457     18.997273      181.64081    
   1213000   1.0691494      18.328128      181.5665     
   1214000   0.99003162     18.429739      181.5591     
   1215000   1.0051931      18.579735      181.35886    
   1216000   0.99780693     18.406821      181.39201    
   1217000   0.99763124     18.441998      181.14651    
   1218000   0.99800439     18.473715      181.05842    
   1219000   0.99581415     18.327157      180.92044    
   1220000   1.0239369      18.485183      180.88901    
   1221000   0.96597822     18.426291      180.81041    
   1222000   1.0116694      18.120325      180.76232    
   1223000   0.99565286     18.643653      180.76114    
   1224000   0.9713158      18.195623      180.59391    
   1225000   1.020092       18.484976      180.48257    
   1226000   0.96661845     18.474101      180.30951    
   1227000   1.034083       18.26899       179.92178    
   1228000   1.0522313      18.543362      179.9926     
   1229000   0.99754969     18.562504      179.96077    
   1230000   0.97963583     18.370619      179.94757    
   1231000   0.99225815     18.355371      179.62893    
   1232000   1.0226848      18.484961      179.62148    
   1233000   0.99750715     18.56145       179.70556    
   1234000   1.0228013      18.493997      179.34741    
   1235000   1.0672994      18.698948      179.36694    
   1236000   1.0306449      18.936833      179.21998    
   1237000   0.97938607     19.091112      179.17066    
   1238000   0.96870936     18.51299       179.02437    
   1239000   1.0075016      18.579032      178.72371    
   1240000   1.038424       17.899985      178.54196    
   1241000   1.0322434      18.274881      178.3714     
   1242000   1.0103991      18.06434       178.33867    
   1243000   0.99666978     18.194773      178.29081    
   1244000   0.98996584     18.200063      178.29284    
   1245000   1.010148       18.131667      178.43468    
   1246000   0.98135887     18.130336      178.58945    
   1247000   1.0082685      18.711192      178.51866    
   1248000   1.0188203      18.652908      178.5288     
   1249000   1.0143827      18.699385      178.52607    
   1250000   0.99438278     18.687437      178.55039    
   1251000   1.01689        18.134004      178.60701    
   1252000   0.98061962     18.329342      178.61268    
   1253000   1.034626       18.753735      178.42391    
   1254000   0.99295377     18.368118      178.36021    
   1255000   1.0279119      18.453342      178.40254    
   1256000   0.99495795     18.41423       178.48941    
   1257000   0.99092116     18.395335      178.56996    
   1258000   0.99113823     18.332243      178.54976    
   1259000   1.0377603      18.739117      178.57948    
   1260000   0.99567833     18.539706      178.49914    
   1261000   1.0159498      18.257983      178.47076    
   1262000   1.0537841      18.270641      178.42933    
   1263000   0.99145312     18.1955        178.51457    
   1264000   1.0427987      18.680235      178.53246    
[...]
   4775000   1.0125002      16.610028      5.4288679    
   4776000   1.0199601      16.711762      5.3957014    
   4777000   1.0054258      17.087749      5.3862521    
   4778000   1.0154933      16.992336      5.4040548    
   4779000   0.99112873     16.760752      5.3586846    
   4780000   0.97175527     16.415882      5.3653318    
   4781000   0.98832798     16.595315      5.4033503    
   4782000   1.0146329      16.395751      5.4085685    
   4783000   0.98148317     16.519021      5.4140603    
   4784000   0.97981222     16.535575      5.4102191    
   4785000   1.0348836      17.050818      5.3968767    
   4786000   1.0157442      16.949242      5.3766868    
   4787000   0.98322809     16.726211      5.4035285    
   4788000   1.0140281      16.723751      5.3898554    
   4789000   0.97347625     16.725285      5.380499     
   4790000   0.98906528     16.655576      5.3717629    
   4791000   1.0042586      16.846742      5.3934074    
   4792000   1.0151118      17.149772      5.4097021    
   4793000   1.0111631      17.034255      5.4126064    
   4794000   1.0460832      16.545929      5.4161798    
   4795000   0.9747021      16.821671      5.4367295    
   4796000   0.99386617     16.957046      5.4014915    
   4797000   0.99456208     16.787054      5.3631274    
   4798000   1.0354343      16.619705      5.3851954    
   4799000   0.96697841     17.125414      5.3657326    
   4800000   1.0220259      16.828484      5.4003444    
   4801000   0.98167513     16.899423      5.3657946    
   4802000   0.99640429     16.636848      5.357893     
   4803000   0.99971903     17.060886      5.3833314    
   4804000   1.0052034      16.792605      5.343021     
   4805000   1.0315867      16.899637      5.3801291    
   4806000   0.97410499     16.620113      5.3778883    
   4807000   0.98788368     16.675682      5.3746422    
   4808000   1.0007046      16.867745      5.3518832    
   4809000   0.96839613     16.303928      5.3690565    
   4810000   1.0324187      16.720987      5.3535209    
   4811000   0.98483085     16.978273      5.4043384    
   4812000   0.983571       16.962658      5.3729051    
   4813000   0.98729055     16.827307      5.3683779    
   4814000   1.0249345      17.095861      5.3655168    
   4815000   1.0103063      17.168216      5.3749927    
   4816000   1.009341       16.979371      5.3944876    
   4817000   0.98623318     16.476516      5.3734209    
   4818000   1.0099211      16.640488      5.4132833    
   4819000   1.0242173      16.126567      5.4020337    
   4820000   1.0311942      17.274186      5.4073227    
   4821000   0.99498289     16.600044      5.3858172    
   4822000   0.98585223     16.992268      5.3719757    
   4823000   0.97663185     17.004176      5.3773618    
   4824000   0.99262636     16.723311      5.3786505    
   4825000   1.016726       16.617329      5.4040409    
   4826000   0.99492468     16.746426      5.392711     
   4827000   1.0368541      16.745365      5.4282152    
   4828000   1.0546241      17.144779      5.402998     
   4829000   0.99617725     17.061636      5.4275605    
   4830000   0.975967       16.674676      5.4005272    
   4831000   1.0054252      16.724174      5.4198364    
   4832000   0.98009773     16.337029      5.401446     
   4833000   1.0269639      17.366142      5.3671031    
   4834000   0.97670678     16.592003      5.4116942    
   4835000   1.0169272      17.206979      5.3879441    
   4836000   1.0061916      16.698153      5.4168191    
   4837000   0.99291135     16.837621      5.3972194    
   4838000   1.0285603      17.049174      5.4559079    
   4839000   0.96341403     16.525226      5.4978218    
   4840000   1.0054334      17.261029      5.441333     
   4841000   0.96632475     16.953207      5.4511175    
   4842000   1.0138437      16.388652      5.4621471    
   4843000   0.97341799     16.270083      5.4521094    
   4844000   0.97723817     16.898588      5.4150308    
   4845000   1.0163056      16.415601      5.4146458    
   4846000   1.0172214      16.553175      5.4361025    
   4847000   1.0189106      16.945994      5.405603     
   4848000   1.0279554      16.460318      5.4404299    
   4849000   1.0096162      16.682399      5.3855706    
   4850000   1.0667866      16.742604      5.3747615    
   4851000   0.95730215     17.07787       5.3605928    
   4852000   1.0114696      16.696664      5.3940152    
   4853000   1.0066041      17.137164      5.3626132    
   4854000   0.97023289     16.159406      5.3886884    
   4855000   0.97449002     17.203313      5.3993304    
   4856000   0.96215528     16.476072      5.3724976    
   4857000   0.99726251     16.730302      5.3828375    
   4858000   0.96473192     16.189728      5.3863526    
   4859000   0.97390317     16.725735      5.3907813    
   4860000   1.0026226      16.299455      5.4025582    
   4861000   0.96365188     16.915434      5.3823496    
   4862000   0.97538455     16.966661      5.3837958    
   4863000   0.99806552     16.951022      5.4254532    
   4864000   0.98971876     16.834595      5.3908906    
   4865000   0.99701378     17.25859       5.3580479    
   4866000   1.0062591      16.875099      5.4028659    
   4867000   1.0348017      16.759875      5.4104732    
   4868000   0.99947905     17.239398      5.3779555    
   4869000   0.99662232     16.797279      5.3853087    
   4870000   0.989791       16.333928      5.4081355    
   4871000   0.97241052     16.376781      5.3885769    
   4872000   0.99986844     17.355884      5.3915109    
   4873000   1.0259893      17.13425       5.3612336    
   4874000   0.96903671     16.887033      5.388339     
   4875000   0.98502632     16.580068      5.3812312    
   4876000   1.0271806      16.536078      5.3796413    
   4877000   0.99750975     16.606417      5.3752256    
   4878000   0.99811539     16.705557      5.3716116    
   4879000   0.98299349     16.833654      5.3738479    
   4880000   0.97226037     16.579027      5.3735492    
   4881000   1.0360743      16.7358        5.3677081    
   4882000   0.95260234     17.440965      5.3724064    
   4883000   0.98248176     16.770845      5.3794182    
   4884000   1.0007099      17.612728      5.3545508    
   4885000   1.0693446      17.235177      5.4017466    
   4886000   1.0213117      16.899068      5.3801586    
   4887000   0.96101034     16.940896      5.3968565    
   4888000   0.99458012     17.043669      5.3682306    
   4889000   0.98708844     16.65279       5.3779764    
   4890000   0.99359202     16.668672      5.3930052    
   4891000   0.98197287     16.476955      5.3872936    
   4892000   0.97719275     16.751288      5.3946577    
   4893000   0.99733588     16.897927      5.41856      
   4894000   0.94882216     17.270673      5.3856497    
   4895000   1.0401474      16.966082      5.3967207    
   4896000   0.98000947     16.63646       5.3830268    
   4897000   0.99282455     16.516158      5.3917856    
   4898000   0.97328795     17.01121       5.4192145    
   4899000   1.053479       16.527697      5.4053064    
   4900000   1.0095992      17.45166       5.3940712    
   4901000   1.0081757      16.719141      5.3956917    
   4902000   0.96179323     16.450975      5.4090363    
   4903000   1.0030135      16.78262       5.4266121    
   4904000   0.96493913     16.631779      5.4258597    
   4905000   0.98098789     16.927782      5.4136485    
   4906000   0.99359625     16.696159      5.4191893    
   4907000   1.0396315      17.00511       5.4118831    
   4908000   0.97203948     16.033439      5.4262866    
   4909000   1.0232515      17.261146      5.3662861    
   4910000   0.92361634     15.896291      5.4238915    
   4911000   1.0183969      16.447108      5.3944491    
   4912000   1.0188869      17.49729       5.3498311    
   4913000   0.99130391     17.033653      5.3936769    
   4914000   0.96723956     17.069081      5.4031717    
   4915000   0.9921229      16.768363      5.4148708    
   4916000   1.0107789      16.615733      5.4110821    
   4917000   0.98304011     16.937047      5.3870056    
   4918000   0.99634983     16.975767      5.4086732    
   4919000   1.0318871      16.147376      5.4218905    
   4920000   1.0424965      17.129589      5.3990849    
   4921000   0.99728923     16.578235      5.4186416    
   4922000   0.97524773     16.668101      5.3873279    
   4923000   1.0182727      16.553016      5.3904772    
   4924000   1.0110977      16.604978      5.4502525    
   4925000   0.99760492     16.622512      5.3942024    
   4926000   0.92521842     16.146802      5.3914624    
   4927000   0.98855029     16.975656      5.412855     
   4928000   1.0227358      17.003011      5.3625243    
   4929000   1.0022762      17.159823      5.387179     
   4930000   1.0357909      16.756071      5.3843569    
   4931000   1.0122302      15.898973      5.3763575    
   4932000   1.01461        16.70288       5.3486698    
   4933000   1.0269707      16.486743      5.4108212    
   4934000   0.99191097     16.856549      5.4010688    
   4935000   1.0198783      16.777322      5.3886281    
   4936000   1.0004462      17.278615      5.3757645    
   4937000   0.97033738     16.616801      5.4144973    
   4938000   1.0140427      17.307822      5.4100959    
   4939000   0.95348222     16.659215      5.4336182    
   4940000   1.0086983      16.680723      5.390834     
   4941000   1.036041       17.148943      5.3981991    
   4942000   0.96523152     16.356757      5.4163337    
   4943000   0.99764834     16.961162      5.3997803    
   4944000   1.0114172      16.408337      5.3673858    
   4945000   1.0101973      16.843939      5.3947347    
   4946000   1.000684       16.60862       5.3532616    
   4947000   0.98235704     16.820025      5.4007521    
   4948000   1.0136404      16.891094      5.3551296    
   4949000   1.0068054      16.298203      5.3920763    
   4950000   0.99376432     16.58963       5.365941     
   4951000   1.0292758      17.40903       5.367056     
   4952000   0.94502078     16.654202      5.374084     
   4953000   1.0178353      16.224627      5.393579     
   4954000   0.98825294     17.738443      5.3988551    
   4955000   1.0480938      16.685143      5.4220725    
   4956000   1.0029418      16.557396      5.4460452    
   4957000   0.9957639      16.418684      5.4366125    
   4958000   1.0096152      16.606577      5.4349663    
   4959000   1.021605       16.871576      5.432746     
   4960000   0.91976038     16.795038      5.4402095    
   4961000   1.0111778      16.680602      5.4015944    
   4962000   1.0093275      16.602443      5.3694797    
   4963000   0.98871656     16.849818      5.3823553    
   4964000   0.96456937     16.539717      5.4143371    
   4965000   1.0336763      16.580825      5.3874706    
   4966000   0.98235346     16.736608      5.370015     
   4967000   0.99531301     17.047625      5.3920659    
   4968000   0.97986513     16.658169      5.3759399    
   4969000   0.99595237     16.643401      5.3886677    
   4970000   0.99633865     17.107252      5.3609605    
   4971000   1.0111283      17.191206      5.4146773    
   4972000   0.98224866     16.428101      5.3955133    
   4973000   1.0373004      16.673671      5.4304461    
   4974000   1.0583913      17.243031      5.4280001    
   4975000   0.98473009     16.607601      5.4018518    
   4976000   1.0102304      16.526377      5.3951366    
   4977000   1.0174791      17.037552      5.4048276    
   4978000   1.0227055      16.634377      5.4148951    
   4979000   0.998852       17.159773      5.4366546    
   4980000   1.0640324      17.024193      5.4154002    
   4981000   0.99101362     16.376588      5.4069284    
   4982000   0.95455122     16.389104      5.3886597    
   4983000   1.0101316      17.338244      5.4044201    
   4984000   1.0078152      16.988517      5.3853049    
   4985000   0.99825301     16.26562       5.3851305    
   4986000   0.97624317     16.44886       5.3632709    
   4987000   1.0013712      16.264364      5.3880656    
   4988000   1.0497888      16.89862       5.3683452    
   4989000   1.0225108      17.508462      5.3503335    
   4990000   1.0088606      16.805347      5.34841      
   4991000   1.0316582      17.051498      5.3905239    
   4992000   0.96750028     16.686909      5.4022271    
   4993000   0.99590207     17.414192      5.4070428    
   4994000   0.98525629     17.269345      5.3618826    
   4995000   1.0047644      17.132936      5.3580574    
   4996000   0.97329442     16.792006      5.3875773    
   4997000   0.99424858     16.626139      5.3447223    
   4998000   1.0120767      17.051996      5.3586675    
   4999000   0.99961161     17.414499      5.4008661    
   5000000   1.0335248      17.067303      5.3996097    
   5001000   1.0295755      17.092803      5.3953994    
   5002000   0.99004219     17.2197        5.3870136    
   5003000   0.99224477     16.486267      5.3768657    
   5004000   0.99074637     16.44066       5.3799032    
   5005000   1.0286364      16.431005      5.4002389    
   5006000   0.96755097     16.69155       5.383968     
   5007000   0.98019282     16.925283      5.3662819    
   5008000   0.99419292     16.557144      5.3846748    
   5009000   1.0174739      17.026632      5.368796     
   5010000   0.9682472      16.336154      5.37783      
   5011000   1.0039789      16.499895      5.3614032    
   5012000   1.0188618      16.868244      5.3534447    
   5013000   1.0250954      16.57884       5.3614926    
   5014000   0.98140983     16.393348      5.3894518    
   5015000   1.0302628      16.693602      5.4129012    
   5016000   1.0127881      17.146931      5.3904447    
   5017000   0.92607639     16.374561      5.4011111    
   5018000   1.0347598      16.560437      5.4128785    
   5019000   0.98977762     16.706948      5.38109      
   5020000   1.0142451      16.420492      5.3459064    
   5021000   1.0496514      16.951942      5.3966532    
   5022000   1.0063907      16.673523      5.3735595    
   5023000   1.0169013      17.035742      5.3959793    
   5024000   1.0161152      16.844462      5.3932393    
   5025000   0.99333592     16.860445      5.4091773    
   5026000   0.99643391     16.783796      5.3710256    
   5027000   1.0202001      16.718826      5.4094952    
   5028000   1.0013432      16.637655      5.3722586    
   5029000   0.99956646     16.301837      5.3998849    
   5030000   0.99990086     17.150288      5.4256706    
   5031000   1.0063426      16.469005      5.3986129    
   5032000   0.99293423     17.215956      5.4086696    
   5033000   0.9852032      16.941577      5.4318087    
   5034000   0.96164144     17.020631      5.3954371    
   5035000   0.98880964     16.180254      5.4013284    
   5036000   0.97096645     16.822703      5.3720789    
   5037000   0.94072434     16.646943      5.3909489    
   5038000   0.99301132     16.801739      5.3931032    
   5039000   0.9590618      16.643924      5.3781077    
   5040000   0.99372208     16.694985      5.3729765    
   5041000   0.99747294     16.427288      5.4072409    
   5042000   1.0221475      16.742495      5.3790547    
   5043000   0.98820189     16.352323      5.4201487    
   5044000   1.0120278      17.077958      5.3668951    
   5045000   0.98673596     16.334546      5.3795871    
   5046000   0.98454455     16.979861      5.3731673    
   5047000   1.0004155      16.374122      5.3706244    
   5048000   0.99453368     16.296314      5.4126513    
   5049000   0.99078603     16.484036      5.3993638    
   5050000   1.0213403      16.621275      5.4006784    
   5051000   1.0445227      17.588298      5.3554078    
   5052000   1.0228397      16.428356      5.4210868    
   5053000   1.001207       16.640261      5.4009162    
   5054000   0.98454112     17.189969      5.4010137    
   5055000   1.0022345      16.507225      5.3722234    
   5056000   1.0308729      16.522794      5.3890918    
   5057000   0.96979458     17.002764      5.4171657    
   5058000   1.0071382      16.838369      5.3878106    
   5059000   1.014632       17.086325      5.3883491    
   5060000   1.0024162      16.384398      5.4220464    
   5061000   1.0119857      16.681899      5.3835318    
   5062000   1.0147032      17.314855      5.4045772    
   5063000   0.98693829     16.581776      5.4320829    
   5064000   1.0085639      16.966563      5.3895717    
   5065000   0.98857769     16.216468      5.4277412    
   5066000   1.0178644      16.483602      5.401688     
   5067000   1.0121005      16.991674      5.4123914    
   5068000   0.97291389     16.54545       5.4021757    
   5069000   1.0106708      17.442357      5.3583903    
   5070000   0.95419151     16.69334       5.3596217    
   5071000   1.0395138      16.560007      5.3943881    
   5072000   1.0023527      16.706558      5.3896855    
   5073000   1.0309009      16.828423      5.4125578    
   5074000   0.99202493     17.27595       5.4197394    
   5075000   1.0279939      16.874264      5.4128267    
   5076000   1.0180461      17.198229      5.4115796    
   5077000   1.014737       16.717812      5.3905307    
   5078000   0.98832717     16.669916      5.375558     
   5079000   0.97163989     16.2961        5.3731264    
   5080000   0.98530895     16.988521      5.3774759    
   5081000   0.99577601     17.301353      5.3596729    
   5082000   0.97787096     16.7543        5.414224     
   5083000   0.9993949      16.43679       5.4497977    
   5084000   0.97922546     16.918914      5.4008011    
   5085000   1.0059118      16.996786      5.4101635    
   5086000   0.9475887      16.677482      5.3946488    
   5087000   0.94683905     17.059072      5.4102285    
   5088000   0.98408686     17.129448      5.3707445    
   5089000   0.97336204     16.729536      5.4286611    
   5090000   1.0073994      16.275689      5.3830744    
   5091000   0.99859455     16.925845      5.4015682    
   5092000   0.98859899     16.069223      5.4089433    
   5093000   1.0271303      16.858469      5.3785137    
   5094000   0.99856807     17.205537      5.3640371    
   5095000   0.985021       16.643795      5.3712061    
   5096000   0.96605465     16.69097       5.3977552    
   5097000   1.0064877      17.115575      5.3713069    
   5098000   1.0016536      16.509414      5.3881606    
   5099000   0.99727129     16.575044      5.3594711    
   5100000   1.0086855      16.289781      5.3543081    
Loop time of 6898.81 on 4 procs for 5000000 steps with 1200 atoms

Performance: 626194.513 tau/day, 724.762 timesteps/s
146.6% CPU use with 2 MPI tasks x 2 OpenMP threads

MPI task timing breakdown:
Section |  min time  |  avg time  |  max time  |%varavg| %total
---------------------------------------------------------------
Pair    | 211.97     | 1381.8     | 2551.6     |3147.0 | 20.03
Bond    | 33.058     | 88.033     | 143.01     | 585.9 |  1.28
Neigh   | 3761.9     | 3761.9     | 3762       |   0.0 | 54.53
Comm    | 114.93     | 749.65     | 1384.4     |2318.2 | 10.87
Output  | 13.934     | 14.075     | 14.216     |   3.8 |  0.20
Modify  | 62.184     | 168.39     | 274.6      | 818.5 |  2.44
Other   |            | 735        |            |       | 10.65

Nlocal:            600 ave        1200 max           0 min
Histogram: 1 0 0 0 0 0 0 0 0 1
Nghost:              0 ave           0 max           0 min
Histogram: 2 0 0 0 0 0 0 0 0 0
Neighs:         174102 ave      348204 max           0 min
Histogram: 1 0 0 0 0 0 0 0 0 1

Total # of neighbors = 348204
Ave neighs/atom = 290.17
Ave special neighs/atom = 1.9983333
Neighbor list builds = 45777
Dangerous builds = 0

# This simulation is done
# Move onto the next one
clear
  using 2 OpenMP thread(s) per MPI task
package omp 0
using multi-threaded neighbor list subroutines
next f
jump SELF

Total wall time: 8:55:48
