bb112nuc5bl18bn4d30tot300

293 atoms
292 bonds
306 angles

1 atom types
1 bond types
1 angle types

-1000 1000 xlo xhi
-1000 1000 ylo yhi
-1000 1000 zlo zhi

Masses

1 1

Atoms

1	1	1	0.0	0.0	0.0	0	0	0
2	1	1	0.0	0.0	1.0	0	0	0
3	1	1	0.0	-0.49999999999999994	1.8660254037844388	0	0	0
4	1	1	0.0	0.0	2.7320508075688776	0	0	0
5	1	1	0.0	-0.49999999999999994	3.5980762113533165	0	0	0
6	1	1	0.0	0.0	4.464101615137755	0	0	0
7	1	1	0.0	-0.49999999999999994	5.330127018922194	0	0	0
8	1	1	0.0	0.0	6.196152422706632	0	0	0
9	1	1	0.0	-0.49999999999999994	7.06217782649107	0	0	0
10	1	1	0.0	0.0	7.928203230275509	0	0	0
11	1	1	0.0	-0.49999999999999994	8.794228634059948	0	0	0
12	1	1	0.0	0.0	9.660254037844387	0	0	0
13	1	1	0.0	-0.49999999999999994	10.526279441628827	0	0	0
14	1	1	0.0	0.0	11.392304845413266	0	0	0
15	1	1	0.0	-0.49999999999999994	12.258330249197705	0	0	0
16	1	1	0.0	0.0	13.124355652982144	0	0	0
17	1	1	0.0	-0.49999999999999994	13.990381056766584	0	0	0
18	1	1	0.0	0.0	14.856406460551023	0	0	0
19	1	1	0.0	-0.49999999999999994	15.722431864335462	0	0	0
20	1	1	-0.21113407517722674	-1.4625142247112317	15.552170977671512	0	0	0
21	1	1	-0.4222681503544534	-2.210945551483067	14.923463612194052	0	0	0
22	1	1	-0.63340222553168	-3.129637764918852	15.257270471427823	0	0	0
23	1	1	-0.8445363007089067	-3.8780690916906875	14.628563105950363	0	0	0
24	1	1	-1.0556703758861334	-4.796761305126473	14.962369965184134	0	0	0
25	1	1	-1.26680445106336	-5.545192631898308	14.333662599706674	0	0	0
26	1	1	-1.4779385262405866	-6.463884845334093	14.667469458940445	0	0	0
27	1	1	-1.6890726014178132	-7.212316172105928	14.038762093462985	0	0	0
28	1	1	-1.9002066765950398	-8.131008385541714	14.372568952696756	0	0	0
29	1	1	-2.1113407517722664	-8.879439712313548	13.743861587219296	0	0	0
30	1	1	-2.322474826949493	-9.798131925749333	14.077668446453067	0	0	0
31	1	1	-2.5336089021267196	-10.546563252521167	13.448961080975607	0	0	0
32	1	1	-2.7447429773039462	-11.465255465956952	13.782767940209379	0	0	0
33	1	1	-2.955877052481173	-12.213686792728787	13.154060574731918	0	0	0
34	1	1	-3.1670111276583994	-13.132379006164571	13.48786743396569	0	0	0
35	1	1	-3.378145202835626	-13.880810332936406	12.85916006848823	0	0	0
36	1	1	-3.5892792780128526	-14.79950254637219	13.192966927722	0	0	0
37	1	1	-3.8004133531900792	-15.547933873144025	12.56425956224454	0	0	0
38	1	1	-0.6900437575057321	-0.11074747568679205	16.332613874102357	0	0	0
39	1	1	-1.3800875150114638	-0.07873590602778166	17.055673257649335	0	0	0
40	1	1	-2.0701312725171954	0.5634576733981232	17.389480116883107	0	0	0
41	1	1	-2.760175030022927	0.5954692430571337	18.112539500430085	0	0	0
42	1	1	-3.4502187875286587	1.2376628224830386	18.446346359663856	0	0	0
43	1	1	-4.140262545034391	1.269674392142049	19.169405743210834	0	0	0
44	1	1	-4.830306302540123	1.911867971567954	19.503212602444606	0	0	0
45	1	1	-5.520350060045855	1.9438795412269645	20.226271985991584	0	0	0
46	1	1	-6.210393817551587	2.5860731206528693	20.560078845225355	0	0	0
47	1	1	-6.900437575057319	2.6180846903118797	21.283138228772334	0	0	0
48	1	1	-7.590481332563051	3.2602782697377846	21.616945088006105	0	0	0
49	1	1	-8.280525090068783	3.292289839396795	22.340004471553083	0	0	0
50	1	1	-8.970568847574516	3.9344834188227	22.673811330786855	0	0	0
51	1	1	-9.660612605080248	3.9664949884817102	23.396870714333833	0	0	0
52	1	1	-10.35065636258598	4.608688567907615	23.730677573567604	0	0	0
53	1	1	-11.040700120091712	4.6407001375666255	24.453736957114582	0	0	0
54	1	1	-11.730743877597444	5.282893716992531	24.787543816348354	0	0	0
55	1	1	-12.420787635103176	5.314905286651541	25.510603199895332	0	0	0
56	1	1	0.90117783268296	-0.42744858845263406	16.149766401394345	0	0	0
57	1	1	1.8023556653659192	-0.5782844915016366	16.556124672175482	0	0	0
58	1	1	2.7035334980488783	-0.30178585749175707	16.889931531409253	0	0	0
59	1	1	3.6047113307318375	-0.45262176054075964	17.29628980219039	0	0	0
60	1	1	4.505889163414797	-0.17612312653088008	17.63009666142416	0	0	0
61	1	1	5.407066996097757	-0.32695902957988265	18.0364549322053	0	0	0
62	1	1	6.308244828780716	-0.05046039557000309	18.37026179143907	0	0	0
63	1	1	7.209422661463676	-0.20129629861900564	18.776620062220207	0	0	0
64	1	1	8.110600494146635	0.07520233539087393	19.11042692145398	0	0	0
65	1	1	9.011778326829594	-0.07563356765812862	19.516785192235115	0	0	0
66	1	1	9.912956159512554	0.20086506635175094	19.850592051468887	0	0	0
67	1	1	10.814133992195513	0.0500291633027484	20.256950322250024	0	0	0
68	1	1	11.715311824878473	0.32652779731262793	20.590757181483795	0	0	0
69	1	1	12.616489657561432	0.1756918942636254	20.997115452264932	0	0	0
70	1	1	13.517667490244392	0.4521905282735049	21.330922311498703	0	0	0
71	1	1	14.418845322927352	0.3013546252245024	21.73728058227984	0	0	0
72	1	1	15.320023155610311	0.5778532592343819	22.071087441513612	0	0	0
73	1	1	16.22120098829327	0.4270173561853794	22.47744571229475	0	0	0
74	1	1	17.122378820976227	0.703515990195259	22.81125257152852	0	0	0
75	1	1	17.518051280738415	-0.03609772173137216	23.35569252387942	0	0	0
76	1	1	17.913723740500604	-0.9488419614225905	23.45738449748717	0	0	0
77	1	1	18.309396200262793	-1.3171462487629104	24.298690183021552	0	0	0
78	1	1	18.70506866002498	-2.229890488454129	24.400382156629302	0	0	0
79	1	1	19.10074111978717	-2.5981947757944486	25.241687842163685	0	0	0
80	1	1	19.49641357954936	-3.510939015485667	25.343379815771435	0	0	0
81	1	1	19.892086039311547	-3.879243302825987	26.184685501305818	0	0	0
82	1	1	20.287758499073735	-4.791987542517205	26.286377474913568	0	0	0
83	1	1	20.683430958835924	-5.160291829857525	27.12768316044795	0	0	0
84	1	1	21.079103418598113	-6.073036069548743	27.2293751340557	0	0	0
85	1	1	21.4747758783603	-6.441340356889063	28.070680819590084	0	0	0
86	1	1	21.87044833812249	-7.354084596580281	28.172372793197834	0	0	0
87	1	1	22.26612079788468	-7.7223888839206	29.013678478732217	0	0	0
88	1	1	22.661793257646867	-8.63513312361182	29.115370452339967	0	0	0
89	1	1	23.057465717409055	-9.00343741095214	29.95667613787435	0	0	0
90	1	1	23.453138177171244	-9.916181650643358	30.0583681114821	0	0	0
91	1	1	23.848810636933433	-10.284485937983678	30.899673797016483	0	0	0
92	1	1	24.24448309669562	-11.197230177674896	31.001365770624233	0	0	0
93	1	1	17.031591429022743	1.5222897903062411	23.378145077841758	0	0	0
94	1	1	16.94080403706926	1.9479224479988555	24.278475289579543	0	0	0
95	1	1	16.850016645115776	2.940447612004708	24.360031701206346	0	0	0
96	1	1	16.759229253162292	3.3660802696973224	25.26036191294413	0	0	0
97	1	1	16.66844186120881	4.3586054337031745	25.341918324570933	0	0	0
98	1	1	16.577654469255325	4.784238091395789	26.24224853630872	0	0	0
99	1	1	16.48686707730184	5.776763255401641	26.32380494793552	0	0	0
100	1	1	16.396079685348358	6.202395913094255	27.224135159673306	0	0	0
101	1	1	16.305292293394874	7.1949210771001075	27.30569157130011	0	0	0
102	1	1	16.21450490144139	7.620553734792722	28.206021783037894	0	0	0
103	1	1	16.123717509487907	8.613078898798575	28.287578194664697	0	0	0
104	1	1	16.032930117534423	9.03871155649119	29.18790840640248	0	0	0
105	1	1	15.942142725580942	10.031236720497043	29.269464818029284	0	0	0
106	1	1	15.85135533362746	10.456869378189658	30.16979502976707	0	0	0
107	1	1	15.760567941673978	11.449394542195511	30.251351441393872	0	0	0
108	1	1	15.669780549720496	11.875027199888127	31.151681653131657	0	0	0
109	1	1	15.578993157767014	12.86755236389398	31.23323806475846	0	0	0
110	1	1	15.488205765813532	13.293185021586595	32.13356827649625	0	0	0
111	1	1	17.719951778984505	0.9012473238147092	22.03420117067893	0	0	0
112	1	1	18.317524736992784	1.4610133822781242	21.460120584306626	0	0	0
113	1	1	18.915097695001062	1.2437280398919495	20.68830866431487	0	0	0
114	1	1	19.51267065300934	1.8034940983553645	20.114228077942567	0	0	0
115	1	1	20.11024361101762	1.5862087559691898	19.34241615795081	0	0	0
116	1	1	20.707816569025898	2.1459748144326047	18.768335571578508	0	0	0
117	1	1	21.305389527034176	1.92868947204643	17.996523651586752	0	0	0
118	1	1	21.902962485042455	2.488455530509845	17.42244306521445	0	0	0
119	1	1	22.500535443050733	2.27117018812367	16.650631145222693	0	0	0
120	1	1	23.09810840105901	2.830936246587085	16.07655055885039	0	0	0
121	1	1	23.69568135906729	2.61365090420091	15.304738638858634	0	0	0
122	1	1	24.29325431707557	3.1734169626643247	14.73065805248633	0	0	0
123	1	1	24.890827275083847	2.95613162027815	13.958846132494575	0	0	0
124	1	1	25.488400233092126	3.5158976787415646	13.38476554612227	0	0	0
125	1	1	26.085973191100404	3.2986123363553896	12.612953626130516	0	0	0
126	1	1	26.683546149108682	3.8583783948188044	12.038873039758212	0	0	0
127	1	1	27.28111910711696	3.6410930524326295	11.267061119766456	0	0	0
128	1	1	27.87869206512524	4.200859110896045	10.692980533394152	0	0	0
129	1	1	28.476265023133518	3.9835737685098698	9.921168613402397	0	0	0
130	1	1	28.205629356340594	4.5265952611778495	9.126257301141596	0	0	0
131	1	1	27.93499368954767	5.394321324759666	8.709354657302107	0	0	0
132	1	1	27.664358022754747	5.467136076080681	7.749430520794639	0	0	0
133	1	1	27.393722355961824	6.334862139662498	7.33252787695515	0	0	0
134	1	1	27.1230866891689	6.407676890983513	6.372603740447682	0	0	0
135	1	1	26.852451022375977	7.27540295456533	5.955701096608193	0	0	0
136	1	1	26.581815355583053	7.348217705886345	4.9957769601007245	0	0	0
137	1	1	26.31117968879013	8.215943769468161	4.578874316261236	0	0	0
138	1	1	26.040544021997206	8.288758520789177	3.6189501797537673	0	0	0
139	1	1	25.769908355204283	9.156484584370993	3.2020475359142786	0	0	0
140	1	1	25.49927268841136	9.229299335692009	2.24212339940681	0	0	0
141	1	1	25.228637021618436	10.097025399273825	1.8252207555673212	0	0	0
142	1	1	24.958001354825512	10.16984015059484	0.8652966190598528	0	0	0
143	1	1	24.68736568803259	11.037566214176657	0.4483939752203639	0	0	0
144	1	1	24.416730021239665	11.110380965497672	-0.5115301612871046	0	0	0
145	1	1	24.146094354446742	11.978107029079489	-0.9284328051265935	0	0	0
146	1	1	23.87545868765382	12.050921780400504	-1.888356941634062	0	0	0
147	1	1	23.604823020860895	12.91864784398232	-2.305259585473551	0	0	0
148	1	1	28.398251339666192	3.0109935474874137	9.702075987173739	0	0	0
149	1	1	28.320237656198866	2.278260681978012	9.026046096566644	0	0	0
150	1	1	28.24222397273154	1.3264351902399516	9.322596426982004	0	0	0
151	1	1	28.164210289264215	0.5937023247305496	8.646566536374909	0	0	0
152	1	1	28.08619660579689	-0.35812316700751057	8.94311686679027	0	0	0
153	1	1	28.008182922329564	-1.0908560325169125	8.267086976183174	0	0	0
154	1	1	27.930169238862238	-2.0426815242549727	8.563637306598535	0	0	0
155	1	1	27.852155555394912	-2.7754143897643746	7.88760741599144	0	0	0
156	1	1	27.774141871927586	-3.7272398815024346	8.184157746406802	0	0	0
157	1	1	27.69612818846026	-4.459972747011837	7.5081278557997075	0	0	0
158	1	1	27.618114504992935	-5.411798238749897	7.804678186215068	0	0	0
159	1	1	27.54010082152561	-6.1445311042593	7.128648295607974	0	0	0
160	1	1	27.462087138058283	-7.09635659599736	7.4251986260233345	0	0	0
161	1	1	27.384073454590958	-7.829089461506762	6.74916873541624	0	0	0
162	1	1	27.306059771123632	-8.780914953244823	7.045719065831601	0	0	0
163	1	1	27.228046087656306	-9.513647818754224	6.369689175224506	0	0	0
164	1	1	27.15003240418898	-10.465473310492284	6.666239505639867	0	0	0
165	1	1	27.072018720721655	-11.198206176001685	5.990209615032772	0	0	0
166	1	1	29.4233362302211	4.195538483765956	10.162264213096952	0	0	0
167	1	1	30.370407437308682	4.2585575120363846	10.477041484801124	0	0	0
168	1	1	31.317478644396264	4.562672140001368	10.57985404124921	0	0	0
169	1	1	32.26454985148384	4.625691168271796	10.894631312953381	0	0	0
170	1	1	33.211621058571424	4.92980579623678	10.997443869401467	0	0	0
171	1	1	34.158692265659006	4.992824824507208	11.312221141105638	0	0	0
172	1	1	35.10576347274659	5.296939452472191	11.415033697553724	0	0	0
173	1	1	36.05283467983417	5.35995848074262	11.729810969257896	0	0	0
174	1	1	36.99990588692175	5.664073108707603	11.832623525705982	0	0	0
175	1	1	37.946977094009334	5.727092136978031	12.147400797410153	0	0	0
176	1	1	38.894048301096916	6.031206764943015	12.25021335385824	0	0	0
177	1	1	39.8411195081845	6.094225793213443	12.56499062556241	0	0	0
178	1	1	40.78819071527208	6.3983404211784265	12.667803182010497	0	0	0
179	1	1	41.73526192235966	6.461359449448855	12.982580453714668	0	0	0
180	1	1	42.682333129447244	6.765474077413838	13.085393010162754	0	0	0
181	1	1	43.629404336534826	6.828493105684267	13.400170281866925	0	0	0
182	1	1	44.57647554362241	7.13260773364925	13.502982838315011	0	0	0
183	1	1	45.52354675070999	7.195626761919678	13.817760110019183	0	0	0
184	1	1	46.47061795779757	7.499741389884662	13.920572666467269	0	0	0
185	1	1	46.59010094965046	8.380319939486155	13.46198218178664	0	0	0
186	1	1	46.709583941503354	9.372218575809017	13.505120446920143	0	0	0
187	1	1	46.829066933356245	9.905526727451251	12.667680162452154	0	0	0
188	1	1	46.948549925209136	10.897425363774113	12.710818427585657	0	0	0
189	1	1	47.06803291706203	11.430733515416348	11.873378143117668	0	0	0
190	1	1	47.18751590891492	12.42263215173921	11.916516408251171	0	0	0
191	1	1	47.30699890076781	12.955940303381444	11.079076123783182	0	0	0
192	1	1	47.4264818926207	13.947838939704306	11.122214388916685	0	0	0
193	1	1	47.54596488447359	14.481147091346541	10.284774104448696	0	0	0
194	1	1	47.66544787632648	15.473045727669403	10.327912369582199	0	0	0
195	1	1	47.78493086817937	16.006353879311636	9.49047208511421	0	0	0
196	1	1	47.904413860032264	16.998252515634498	9.533610350247713	0	0	0
197	1	1	48.023896851885155	17.531560667276732	8.696170065779723	0	0	0
198	1	1	48.143379843738046	18.523459303599594	8.739308330913227	0	0	0
199	1	1	48.26286283559094	19.05676745524183	7.901868046445237	0	0	0
200	1	1	48.38234582744383	20.04866609156469	7.945006311578741	0	0	0
201	1	1	48.50182881929672	20.581974243206925	7.107566027110751	0	0	0
202	1	1	48.62131181114961	21.573872879529787	7.150704292244255	0	0	0
203	1	1	47.08426939557629	6.824956591408035	13.510575851044313	0	0	0
204	1	1	47.69792083335501	6.44557422155119	12.818115794179	0	0	0
205	1	1	48.311572271133734	5.656195036271391	12.800440535790315	0	0	0
206	1	1	48.925223708912455	5.276812666414546	12.107980478925002	0	0	0
207	1	1	49.538875146691176	4.4874334811347465	12.090305220536317	0	0	0
208	1	1	50.152526584469896	4.108051111277902	11.397845163671004	0	0	0
209	1	1	50.76617802224862	3.3186719259981023	11.380169905282319	0	0	0
210	1	1	51.37982946002734	2.939289556141258	10.687709848417006	0	0	0
211	1	1	51.99348089780606	2.149910370861458	10.67003459002832	0	0	0
212	1	1	52.60713233558478	1.7705280010046138	9.977574533163008	0	0	0
213	1	1	53.2207837733635	0.9811488157248143	9.959899274774322	0	0	0
214	1	1	53.83443521114222	0.6017664458679698	9.26743921790901	0	0	0
215	1	1	54.44808664892094	-0.18761273941182977	9.249763959520324	0	0	0
216	1	1	55.06173808669966	-0.5669951092686742	8.557303902655011	0	0	0
217	1	1	55.67538952447838	-1.3563742945484738	8.539628644266326	0	0	0
218	1	1	56.289040962257104	-1.7357566644053182	7.847168587401014	0	0	0
219	1	1	56.902692400035825	-2.5251358496851175	7.829493329012329	0	0	0
220	1	1	57.516343837814546	-2.904518219541962	7.137033272147017	0	0	0
221	1	1	46.685900123491884	7.59849428518391	14.892118576244044	0	0	0
222	1	1	46.901182289186195	7.198243846321936	15.78287846270322	0	0	0
223	1	1	47.11646445488051	7.769539317236736	16.574885453863146	0	0	0
224	1	1	47.33174662057482	7.369288878374762	17.46564534032232	0	0	0
225	1	1	47.54702878626913	7.940584349289564	18.257652331482248	0	0	0
226	1	1	47.76231095196344	7.54033391042759	19.148412217941424	0	0	0
227	1	1	47.977593117657754	8.111629381342391	19.94041920910135	0	0	0
228	1	1	48.192875283352066	7.711378942480417	20.831179095560525	0	0	0
229	1	1	48.40815744904638	8.282674413395219	21.62318608672045	0	0	0
230	1	1	48.62343961474069	7.8824239745332445	22.513945973179627	0	0	0
231	1	1	48.838721780435	8.453719445448046	23.305952964339554	0	0	0
232	1	1	49.05400394612931	8.053469006586072	24.19671285079873	0	0	0
233	1	1	49.269286111823625	8.624764477500873	24.988719841958655	0	0	0
234	1	1	49.48456827751794	8.2245140386389	25.87947972841783	0	0	0
235	1	1	49.69985044321225	8.7958095095537	26.671486719577757	0	0	0
236	1	1	49.91513260890656	8.395559070691727	27.562246606036933	0	0	0
237	1	1	50.13041477460087	8.966854541606528	28.35425359719686	0	0	0
238	1	1	50.345696940295184	8.566604102744554	29.245013483656034	0	0	0
239	1	1	50.560979105989496	9.137899573659356	30.03702047481596	0	0	0
240	1	1	49.72190543811605	9.556216071723098	30.384823130540568	0	0	0
241	1	1	48.88283177024261	9.74458745800614	30.89518731493364	0	0	0
242	1	1	48.04375810236917	10.280761500013789	30.98723500126297	0	0	0
243	1	1	47.204684434495725	10.469132886296832	31.497599185656043	0	0	0
244	1	1	46.36561076662228	11.00530692830448	31.589646871985373	0	0	0
245	1	1	45.52653709874884	11.193678314587522	32.10001105637845	0	0	0
246	1	1	44.6874634308754	11.72985235659517	32.19205874270778	0	0	0
247	1	1	43.848389763001954	11.918223742878213	32.702422927100855	0	0	0
248	1	1	43.00931609512851	12.454397784885861	32.794470613430185	0	0	0
249	1	1	42.17024242725507	12.642769171168904	33.30483479782326	0	0	0
250	1	1	41.331168759381626	13.178943213176552	33.39688248415259	0	0	0
251	1	1	40.49209509150818	13.367314599459595	33.90724666854567	0	0	0
252	1	1	39.65302142363474	13.903488641467243	33.999294354875	0	0	0
253	1	1	38.8139477557613	14.091860027750286	34.509658539268074	0	0	0
254	1	1	37.974874087887855	14.628034069757934	34.601706225597404	0	0	0
255	1	1	37.13580042001441	14.816405456040977	35.11207040999048	0	0	0
256	1	1	36.29672675214097	15.352579498048625	35.20411809631981	0	0	0
257	1	1	35.45765308426753	15.540950884331668	35.714482280712886	0	0	0
258	1	1	51.20315487092049	9.855158207886703	29.766557282197066	0	0	0
259	1	1	51.84533063585149	10.611554002520766	29.890958603714132	0	0	0
260	1	1	52.487506400782486	11.097486604535932	29.29810129100385	0	0	0
261	1	1	53.12968216571348	11.853882399169995	29.422502612520915	0	0	0
262	1	1	53.77185793064448	12.339815001185162	28.829645299810633	0	0	0
263	1	1	54.414033695575476	13.096210795819225	28.9540466213277	0	0	0
264	1	1	55.05620946050647	13.582143397834392	28.361189308617416	0	0	0
265	1	1	55.69838522543747	14.338539192468454	28.48559063013448	0	0	0
266	1	1	56.340560990368466	14.824471794483621	27.8927333174242	0	0	0
267	1	1	56.98273675529946	15.580867589117684	28.017134638941265	0	0	0
268	1	1	57.62491252023046	16.066800191132852	27.424277326230982	0	0	0
269	1	1	58.267088285161456	16.823195985766915	27.548678647748048	0	0	0
270	1	1	58.90926405009245	17.309128587782084	26.955821335037765	0	0	0
271	1	1	59.55143981502345	18.065524382416147	27.08022265655483	0	0	0
272	1	1	60.19361557995445	18.551456984431315	26.487365343844548	0	0	0
273	1	1	60.83579134488544	19.307852779065378	26.611766665361614	0	0	0
274	1	1	61.47796710981644	19.793785381080546	26.01890935265133	0	0	0
275	1	1	62.12014287474744	20.55018117571461	26.143310674168397	0	0	0
276	1	1	50.973464999670334	8.574431481889908	30.752813110341094	0	0	0
277	1	1	51.38595089335117	7.728557482433057	31.09097367066295	0	0	0
278	1	1	51.79843678703201	7.598476118501341	31.99260232275426	0	0	0
279	1	1	52.21092268071285	6.75260211904449	32.33076288307612	0	0	0
280	1	1	52.623408574393686	6.622520755112774	33.23239153516742	0	0	0
281	1	1	53.035894468074524	5.776646755655923	33.57055209548928	0	0	0
282	1	1	53.44838036175536	5.646565391724207	34.47218074758059	0	0	0
283	1	1	53.8608662554362	4.800691392267356	34.81034130790245	0	0	0
284	1	1	54.27335214911704	4.6706100283356395	35.71196995999375	0	0	0
285	1	1	54.685838042797876	3.824736028878789	36.05013052031561	0	0	0
286	1	1	55.098323936478714	3.6946546649470724	36.951759172406916	0	0	0
287	1	1	55.51080983015955	2.8487806654902217	37.28991973272878	0	0	0
288	1	1	55.92329572384039	2.7186993015585053	38.19154838482008	0	0	0
289	1	1	56.33578161752123	1.8728253021016545	38.52970894514194	0	0	0
290	1	1	56.748267511202066	1.7427439381699381	39.431337597233245	0	0	0
291	1	1	57.160753404882904	0.8968699387130873	39.769498157555105	0	0	0
292	1	1	57.57323929856374	0.766788574781371	40.67112680964641	0	0	0
293	1	1	57.98572519224458	-0.07908542467547985	41.00928736996827	0	0	0

Bonds

1	1	1	2
2	1	2	3
3	1	3	4
4	1	4	5
5	1	5	6
6	1	6	7
7	1	7	8
8	1	8	9
9	1	9	10
10	1	10	11
11	1	11	12
12	1	12	13
13	1	13	14
14	1	14	15
15	1	15	16
16	1	16	17
17	1	17	18
18	1	18	19
19	1	19	20
20	1	19	38
21	1	19	56
22	1	20	21
23	1	21	22
24	1	22	23
25	1	23	24
26	1	24	25
27	1	25	26
28	1	26	27
29	1	27	28
30	1	28	29
31	1	29	30
32	1	30	31
33	1	31	32
34	1	32	33
35	1	33	34
36	1	34	35
37	1	35	36
38	1	36	37
39	1	38	39
40	1	39	40
41	1	40	41
42	1	41	42
43	1	42	43
44	1	43	44
45	1	44	45
46	1	45	46
47	1	46	47
48	1	47	48
49	1	48	49
50	1	49	50
51	1	50	51
52	1	51	52
53	1	52	53
54	1	53	54
55	1	54	55
56	1	56	57
57	1	57	58
58	1	58	59
59	1	59	60
60	1	60	61
61	1	61	62
62	1	62	63
63	1	63	64
64	1	64	65
65	1	65	66
66	1	66	67
67	1	67	68
68	1	68	69
69	1	69	70
70	1	70	71
71	1	71	72
72	1	72	73
73	1	73	74
74	1	74	75
75	1	74	93
76	1	74	111
77	1	75	76
78	1	76	77
79	1	77	78
80	1	78	79
81	1	79	80
82	1	80	81
83	1	81	82
84	1	82	83
85	1	83	84
86	1	84	85
87	1	85	86
88	1	86	87
89	1	87	88
90	1	88	89
91	1	89	90
92	1	90	91
93	1	91	92
94	1	93	94
95	1	94	95
96	1	95	96
97	1	96	97
98	1	97	98
99	1	98	99
100	1	99	100
101	1	100	101
102	1	101	102
103	1	102	103
104	1	103	104
105	1	104	105
106	1	105	106
107	1	106	107
108	1	107	108
109	1	108	109
110	1	109	110
111	1	111	112
112	1	112	113
113	1	113	114
114	1	114	115
115	1	115	116
116	1	116	117
117	1	117	118
118	1	118	119
119	1	119	120
120	1	120	121
121	1	121	122
122	1	122	123
123	1	123	124
124	1	124	125
125	1	125	126
126	1	126	127
127	1	127	128
128	1	128	129
129	1	129	130
130	1	129	148
131	1	129	166
132	1	130	131
133	1	131	132
134	1	132	133
135	1	133	134
136	1	134	135
137	1	135	136
138	1	136	137
139	1	137	138
140	1	138	139
141	1	139	140
142	1	140	141
143	1	141	142
144	1	142	143
145	1	143	144
146	1	144	145
147	1	145	146
148	1	146	147
149	1	148	149
150	1	149	150
151	1	150	151
152	1	151	152
153	1	152	153
154	1	153	154
155	1	154	155
156	1	155	156
157	1	156	157
158	1	157	158
159	1	158	159
160	1	159	160
161	1	160	161
162	1	161	162
163	1	162	163
164	1	163	164
165	1	164	165
166	1	166	167
167	1	167	168
168	1	168	169
169	1	169	170
170	1	170	171
171	1	171	172
172	1	172	173
173	1	173	174
174	1	174	175
175	1	175	176
176	1	176	177
177	1	177	178
178	1	178	179
179	1	179	180
180	1	180	181
181	1	181	182
182	1	182	183
183	1	183	184
184	1	184	185
185	1	184	203
186	1	184	221
187	1	185	186
188	1	186	187
189	1	187	188
190	1	188	189
191	1	189	190
192	1	190	191
193	1	191	192
194	1	192	193
195	1	193	194
196	1	194	195
197	1	195	196
198	1	196	197
199	1	197	198
200	1	198	199
201	1	199	200
202	1	200	201
203	1	201	202
204	1	203	204
205	1	204	205
206	1	205	206
207	1	206	207
208	1	207	208
209	1	208	209
210	1	209	210
211	1	210	211
212	1	211	212
213	1	212	213
214	1	213	214
215	1	214	215
216	1	215	216
217	1	216	217
218	1	217	218
219	1	218	219
220	1	219	220
221	1	221	222
222	1	222	223
223	1	223	224
224	1	224	225
225	1	225	226
226	1	226	227
227	1	227	228
228	1	228	229
229	1	229	230
230	1	230	231
231	1	231	232
232	1	232	233
233	1	233	234
234	1	234	235
235	1	235	236
236	1	236	237
237	1	237	238
238	1	238	239
239	1	239	240
240	1	239	258
241	1	239	276
242	1	240	241
243	1	241	242
244	1	242	243
245	1	243	244
246	1	244	245
247	1	245	246
248	1	246	247
249	1	247	248
250	1	248	249
251	1	249	250
252	1	250	251
253	1	251	252
254	1	252	253
255	1	253	254
256	1	254	255
257	1	255	256
258	1	256	257
259	1	258	259
260	1	259	260
261	1	260	261
262	1	261	262
263	1	262	263
264	1	263	264
265	1	264	265
266	1	265	266
267	1	266	267
268	1	267	268
269	1	268	269
270	1	269	270
271	1	270	271
272	1	271	272
273	1	272	273
274	1	273	274
275	1	274	275
276	1	276	277
277	1	277	278
278	1	278	279
279	1	279	280
280	1	280	281
281	1	281	282
282	1	282	283
283	1	283	284
284	1	284	285
285	1	285	286
286	1	286	287
287	1	287	288
288	1	288	289
289	1	289	290
290	1	290	291
291	1	291	292
292	1	292	293

Angles

1	1	1	2	3
2	1	2	3	4
3	1	3	4	5
4	1	4	5	6
5	1	5	6	7
6	1	6	7	8
7	1	7	8	9
8	1	8	9	10
9	1	9	10	11
10	1	10	11	12
11	1	11	12	13
12	1	12	13	14
13	1	13	14	15
14	1	14	15	16
15	1	15	16	17
16	1	16	17	18
17	1	17	18	19
18	1	18	19	20
19	1	18	19	39
20	1	18	19	58
21	1	19	20	21
22	1	19	38	39
23	1	19	56	57
24	1	20	19	39
25	1	20	19	58
26	1	20	21	22
27	1	21	22	23
28	1	22	23	24
29	1	23	24	25
30	1	24	25	26
31	1	25	26	27
32	1	26	27	28
33	1	27	28	29
34	1	28	29	30
35	1	29	30	31
36	1	30	31	32
37	1	31	32	33
38	1	32	33	34
39	1	33	34	35
40	1	34	35	36
41	1	35	36	37
42	1	38	39	40
43	1	39	19	58
44	1	39	40	41
45	1	40	41	42
46	1	41	42	43
47	1	42	43	44
48	1	43	44	45
49	1	44	45	46
50	1	45	46	47
51	1	46	47	48
52	1	47	48	49
53	1	48	49	50
54	1	49	50	51
55	1	50	51	52
56	1	51	52	53
57	1	52	53	54
58	1	53	54	55
59	1	56	57	58
60	1	57	58	59
61	1	58	59	60
62	1	59	60	61
63	1	60	61	62
64	1	61	62	63
65	1	62	63	64
66	1	63	64	65
67	1	64	65	66
68	1	65	66	67
69	1	66	67	68
70	1	67	68	69
71	1	68	69	70
72	1	69	70	71
73	1	70	71	72
74	1	71	72	73
75	1	72	73	74
76	1	73	74	75
77	1	73	74	94
78	1	73	74	113
79	1	74	75	76
80	1	74	93	94
81	1	74	111	112
82	1	75	74	94
83	1	75	74	113
84	1	75	76	77
85	1	76	77	78
86	1	77	78	79
87	1	78	79	80
88	1	79	80	81
89	1	80	81	82
90	1	81	82	83
91	1	82	83	84
92	1	83	84	85
93	1	84	85	86
94	1	85	86	87
95	1	86	87	88
96	1	87	88	89
97	1	88	89	90
98	1	89	90	91
99	1	90	91	92
100	1	93	94	95
101	1	94	74	113
102	1	94	95	96
103	1	95	96	97
104	1	96	97	98
105	1	97	98	99
106	1	98	99	100
107	1	99	100	101
108	1	100	101	102
109	1	101	102	103
110	1	102	103	104
111	1	103	104	105
112	1	104	105	106
113	1	105	106	107
114	1	106	107	108
115	1	107	108	109
116	1	108	109	110
117	1	111	112	113
118	1	112	113	114
119	1	113	114	115
120	1	114	115	116
121	1	115	116	117
122	1	116	117	118
123	1	117	118	119
124	1	118	119	120
125	1	119	120	121
126	1	120	121	122
127	1	121	122	123
128	1	122	123	124
129	1	123	124	125
130	1	124	125	126
131	1	125	126	127
132	1	126	127	128
133	1	127	128	129
134	1	128	129	130
135	1	128	129	149
136	1	128	129	168
137	1	129	130	131
138	1	129	148	149
139	1	129	166	167
140	1	130	129	149
141	1	130	129	168
142	1	130	131	132
143	1	131	132	133
144	1	132	133	134
145	1	133	134	135
146	1	134	135	136
147	1	135	136	137
148	1	136	137	138
149	1	137	138	139
150	1	138	139	140
151	1	139	140	141
152	1	140	141	142
153	1	141	142	143
154	1	142	143	144
155	1	143	144	145
156	1	144	145	146
157	1	145	146	147
158	1	148	149	150
159	1	149	129	168
160	1	149	150	151
161	1	150	151	152
162	1	151	152	153
163	1	152	153	154
164	1	153	154	155
165	1	154	155	156
166	1	155	156	157
167	1	156	157	158
168	1	157	158	159
169	1	158	159	160
170	1	159	160	161
171	1	160	161	162
172	1	161	162	163
173	1	162	163	164
174	1	163	164	165
175	1	166	167	168
176	1	167	168	169
177	1	168	169	170
178	1	169	170	171
179	1	170	171	172
180	1	171	172	173
181	1	172	173	174
182	1	173	174	175
183	1	174	175	176
184	1	175	176	177
185	1	176	177	178
186	1	177	178	179
187	1	178	179	180
188	1	179	180	181
189	1	180	181	182
190	1	181	182	183
191	1	182	183	184
192	1	183	184	185
193	1	183	184	204
194	1	183	184	223
195	1	184	185	186
196	1	184	203	204
197	1	184	221	222
198	1	185	184	204
199	1	185	184	223
200	1	185	186	187
201	1	186	187	188
202	1	187	188	189
203	1	188	189	190
204	1	189	190	191
205	1	190	191	192
206	1	191	192	193
207	1	192	193	194
208	1	193	194	195
209	1	194	195	196
210	1	195	196	197
211	1	196	197	198
212	1	197	198	199
213	1	198	199	200
214	1	199	200	201
215	1	200	201	202
216	1	203	204	205
217	1	204	184	223
218	1	204	205	206
219	1	205	206	207
220	1	206	207	208
221	1	207	208	209
222	1	208	209	210
223	1	209	210	211
224	1	210	211	212
225	1	211	212	213
226	1	212	213	214
227	1	213	214	215
228	1	214	215	216
229	1	215	216	217
230	1	216	217	218
231	1	217	218	219
232	1	218	219	220
233	1	221	222	223
234	1	222	223	224
235	1	223	224	225
236	1	224	225	226
237	1	225	226	227
238	1	226	227	228
239	1	227	228	229
240	1	228	229	230
241	1	229	230	231
242	1	230	231	232
243	1	231	232	233
244	1	232	233	234
245	1	233	234	235
246	1	234	235	236
247	1	235	236	237
248	1	236	237	238
249	1	237	238	239
250	1	238	239	240
251	1	238	239	258
252	1	238	239	276
253	1	239	240	241
254	1	239	258	259
255	1	239	276	277
256	1	240	239	258
257	1	240	239	276
258	1	240	241	242
259	1	241	242	243
260	1	242	243	244
261	1	243	244	245
262	1	244	245	246
263	1	245	246	247
264	1	246	247	248
265	1	247	248	249
266	1	248	249	250
267	1	249	250	251
268	1	250	251	252
269	1	251	252	253
270	1	252	253	254
271	1	253	254	255
272	1	254	255	256
273	1	255	256	257
274	1	258	239	276
275	1	258	259	260
276	1	259	260	261
277	1	260	261	262
278	1	261	262	263
279	1	262	263	264
280	1	263	264	265
281	1	264	265	266
282	1	265	266	267
283	1	266	267	268
284	1	267	268	269
285	1	268	269	270
286	1	269	270	271
287	1	270	271	272
288	1	271	272	273
289	1	272	273	274
290	1	273	274	275
291	1	276	277	278
292	1	277	278	279
293	1	278	279	280
294	1	279	280	281
295	1	280	281	282
296	1	281	282	283
297	1	282	283	284
298	1	283	284	285
299	1	284	285	286
300	1	285	286	287
301	1	286	287	288
302	1	287	288	289
303	1	288	289	290
304	1	289	290	291
305	1	290	291	292
306	1	291	292	293
