bb150nuc5bl25bn4d30tot400

401 atoms
400 bonds
414 angles

1 atom types
1 bond types
1 angle types

-1000 1000 xlo xhi
-1000 1000 ylo yhi
-1000 1000 zlo zhi

Masses

1 1

Atoms

1	1	1	0.0	0.0	0.0	0	0	0
2	1	1	0.0	0.0	1.0	0	0	0
3	1	1	0.0	-0.49999999999999994	1.8660254037844388	0	0	0
4	1	1	0.0	0.0	2.7320508075688776	0	0	0
5	1	1	0.0	-0.49999999999999994	3.5980762113533165	0	0	0
6	1	1	0.0	0.0	4.464101615137755	0	0	0
7	1	1	0.0	-0.49999999999999994	5.330127018922194	0	0	0
8	1	1	0.0	0.0	6.196152422706632	0	0	0
9	1	1	0.0	-0.49999999999999994	7.06217782649107	0	0	0
10	1	1	0.0	0.0	7.928203230275509	0	0	0
11	1	1	0.0	-0.49999999999999994	8.794228634059948	0	0	0
12	1	1	0.0	0.0	9.660254037844387	0	0	0
13	1	1	0.0	-0.49999999999999994	10.526279441628827	0	0	0
14	1	1	0.0	0.0	11.392304845413266	0	0	0
15	1	1	0.0	-0.49999999999999994	12.258330249197705	0	0	0
16	1	1	0.0	0.0	13.124355652982144	0	0	0
17	1	1	0.0	-0.49999999999999994	13.990381056766584	0	0	0
18	1	1	0.0	0.0	14.856406460551023	0	0	0
19	1	1	0.0	-0.49999999999999994	15.722431864335462	0	0	0
20	1	1	0.0	0.0	16.5884572681199	0	0	0
21	1	1	0.0	-0.49999999999999994	17.454482671904337	0	0	0
22	1	1	0.0	0.0	18.320508075688775	0	0	0
23	1	1	0.0	-0.49999999999999994	19.186533479473212	0	0	0
24	1	1	0.0	0.0	20.05255888325765	0	0	0
25	1	1	0.0	-0.49999999999999994	20.918584287042087	0	0	0
26	1	1	0.0	0.0	21.784609690826525	0	0	0
27	1	1	-0.33120485955218837	0.9312052294990548	21.63242506097638	0	0	0
28	1	1	-0.6624097191043772	1.8137449293072283	21.966231920210152	0	0	0
29	1	1	-0.993614578656566	2.5440999992652564	21.368833549944867	0	0	0
30	1	1	-1.3248194382087548	3.42663969907343	21.70264040917864	0	0	0
31	1	1	-1.6560242977609436	4.156994769031458	21.105242038913353	0	0	0
32	1	1	-1.9872291573131324	5.039534468839632	21.439048898147124	0	0	0
33	1	1	-2.318434016865321	5.76988953879766	20.84165052788184	0	0	0
34	1	1	-2.6496388764175096	6.6524292386058335	21.17545738711561	0	0	0
35	1	1	-2.980843735969698	7.382784308563862	20.578059016850325	0	0	0
36	1	1	-3.312048595521887	8.265324008372035	20.911865876084097	0	0	0
37	1	1	-3.6432534550740754	8.995679078330063	20.31446750581881	0	0	0
38	1	1	-3.974458314626264	9.878218778138237	20.648274365052583	0	0	0
39	1	1	-4.305663174178453	10.608573848096265	20.050875994787297	0	0	0
40	1	1	-4.636868033730642	11.491113547904439	20.38468285402107	0	0	0
41	1	1	-4.968072893282831	12.221468617862467	19.787284483755784	0	0	0
42	1	1	-5.29927775283502	13.10400831767064	20.121091342989555	0	0	0
43	1	1	-5.630482612387209	13.834363387628668	19.52369297272427	0	0	0
44	1	1	-5.961687471939398	14.716903087436842	19.85749983195804	0	0	0
45	1	1	-6.292892331491587	15.44725815739487	19.260101461692756	0	0	0
46	1	1	-6.624097191043776	16.329797857203044	19.593908320926527	0	0	0
47	1	1	-6.955302050595965	17.06015292716107	18.996509950661242	0	0	0
48	1	1	-7.286506910148154	17.942692626969244	19.330316809895013	0	0	0
49	1	1	-7.617711769700343	18.67304769692727	18.732918439629728	0	0	0
50	1	1	-7.948916629252532	19.555587396735444	19.0667252988635	0	0	0
51	1	1	-8.28012148880472	20.28594246669347	18.469326928598214	0	0	0
52	1	1	0.9299042296582642	0.03315617433994393	22.150913924717983	0	0	0
53	1	1	1.8598084593165294	-0.12128185333508758	22.484720783951754	0	0	0
54	1	1	2.7897126889747943	0.09058435288133836	22.785371468845582	0	0	0
55	1	1	3.7196169186330597	-0.06385367479369315	23.119178328079354	0	0	0
56	1	1	4.649521148291325	0.1480125314227328	23.41982901297318	0	0	0
57	1	1	5.57942537794959	-0.0064254962522987125	23.753635872206953	0	0	0
58	1	1	6.509329607607856	0.20544070996412722	24.05428655710078	0	0	0
59	1	1	7.439233837266121	0.05100268228909571	24.388093416334552	0	0	0
60	1	1	8.369138066924386	0.26286888850552165	24.68874410122838	0	0	0
61	1	1	9.29904229658265	0.10843086083049014	25.02255096046215	0	0	0
62	1	1	10.228946526240914	0.3202970670469161	25.32320164535598	0	0	0
63	1	1	11.158850755899179	0.16585903937188456	25.65700850458975	0	0	0
64	1	1	12.088754985557443	0.3777252455883105	25.95765918948358	0	0	0
65	1	1	13.018659215215708	0.223287217913279	26.29146604871735	0	0	0
66	1	1	13.948563444873972	0.4351534241297049	26.592116733611178	0	0	0
67	1	1	14.878467674532237	0.2807153964546734	26.92592359284495	0	0	0
68	1	1	15.808371904190501	0.49258160267109935	27.226574277738777	0	0	0
69	1	1	16.738276133848768	0.33814357499606784	27.56038113697255	0	0	0
70	1	1	17.668180363507034	0.5500097812124938	27.861031821866376	0	0	0
71	1	1	18.5980845931653	0.39557175353746227	28.194838681100148	0	0	0
72	1	1	19.527988822823566	0.6074379597538881	28.495489365993976	0	0	0
73	1	1	20.457893052481833	0.45299993207885664	28.829296225227747	0	0	0
74	1	1	21.3877972821401	0.6648661382952825	29.129946910121575	0	0	0
75	1	1	22.317701511798365	0.5104281106202511	29.463753769355346	0	0	0
76	1	1	23.24760574145663	0.722294316836677	29.764404454249174	0	0	0
77	1	1	-0.5986993701060719	-0.4636511149883432	22.437745746947037	0	0	0
78	1	1	-1.1973987402121442	-1.1917527871214852	22.77155260618081	0	0	0
79	1	1	-1.7960981103182165	-1.2667184031341143	23.569010580402924	0	0	0
80	1	1	-2.394797480424289	-1.9948200752672562	23.902817439636696	0	0	0
81	1	1	-2.993496850530361	-2.0697856912798853	24.70027541385881	0	0	0
82	1	1	-3.5921962206364335	-2.7978873634130275	25.034082273092583	0	0	0
83	1	1	-4.190895590742506	-2.8728529794256565	25.8315402473147	0	0	0
84	1	1	-4.789594960848579	-3.6009546515587987	26.16534710654847	0	0	0
85	1	1	-5.388294330954651	-3.6759202675714278	26.962805080770586	0	0	0
86	1	1	-5.986993701060724	-4.4040219397045695	27.296611940004357	0	0	0
87	1	1	-6.585693071166797	-4.4789875557171985	28.094069914226473	0	0	0
88	1	1	-7.18439244127287	-5.20708922785034	28.427876773460245	0	0	0
89	1	1	-7.7830918113789425	-5.282054843862969	29.22533474768236	0	0	0
90	1	1	-8.381791181485015	-6.010156515996111	29.559141606916132	0	0	0
91	1	1	-8.980490551591087	-6.08512213200874	30.356599581138248	0	0	0
92	1	1	-9.579189921697159	-6.813223804141882	30.69040644037202	0	0	0
93	1	1	-10.17788929180323	-6.888189420154511	31.487864414594135	0	0	0
94	1	1	-10.776588661909303	-7.6162910922876526	31.821671273827906	0	0	0
95	1	1	-11.375288032015375	-7.691256708300282	32.61912924805002	0	0	0
96	1	1	-11.973987402121447	-8.419358380433424	32.95293610728379	0	0	0
97	1	1	-12.572686772227518	-8.494323996446054	33.7503940815059	0	0	0
98	1	1	-13.17138614233359	-9.222425668579197	34.08420094073968	0	0	0
99	1	1	-13.770085512439662	-9.297391284591827	34.88165891496179	0	0	0
100	1	1	-14.368784882545734	-10.02549295672497	35.215465774195565	0	0	0
101	1	1	-14.967484252651806	-10.1004585727376	36.01292374841768	0	0	0
102	1	1	-14.854505001926235	-11.001526357673457	36.431627146847006	0	0	0
103	1	1	-14.741525751200662	-11.991225649174352	36.34370103406976	0	0	0
104	1	1	-14.628546500475089	-12.562221542245913	37.15684270622837	0	0	0
105	1	1	-14.515567249749516	-13.551920833746808	37.06891659345112	0	0	0
106	1	1	-14.402587999023943	-14.122916726818369	37.88205826560973	0	0	0
107	1	1	-14.28960874829837	-15.112616018319263	37.79413215283248	0	0	0
108	1	1	-14.176629497572797	-15.683611911390825	38.60727382499109	0	0	0
109	1	1	-14.063650246847224	-16.673311202891718	38.51934771221384	0	0	0
110	1	1	-13.950670996121652	-17.24430709596328	39.33248938437245	0	0	0
111	1	1	-13.837691745396079	-18.234006387464174	39.244563271595204	0	0	0
112	1	1	-13.724712494670506	-18.805002280535735	40.05770494375381	0	0	0
113	1	1	-13.611733243944933	-19.79470157203663	39.969778830976566	0	0	0
114	1	1	-13.49875399321936	-20.36569746510819	40.78292050313517	0	0	0
115	1	1	-13.385774742493787	-21.355396756609085	40.69499439035793	0	0	0
116	1	1	-13.272795491768214	-21.926392649680647	41.508136062516535	0	0	0
117	1	1	-13.159816241042641	-22.91609194118154	41.42020994973929	0	0	0
118	1	1	-13.046836990317068	-23.487087834253103	42.233351621897896	0	0	0
119	1	1	-12.933857739591495	-24.476787125753997	42.14542550912065	0	0	0
120	1	1	-12.820878488865922	-25.04778301882556	42.95856718127926	0	0	0
121	1	1	-12.70789923814035	-26.037482310326453	42.87064106850201	0	0	0
122	1	1	-12.594919987414777	-26.608478203398015	43.68378274066062	0	0	0
123	1	1	-12.481940736689204	-27.59817749489891	43.59585662788337	0	0	0
124	1	1	-12.36896148596363	-28.16917338797047	44.40899830004198	0	0	0
125	1	1	-12.255982235238058	-29.158872679471365	44.32107218726473	0	0	0
126	1	1	-12.143002984512485	-29.729868572542927	45.13421385942334	0	0	0
127	1	1	-15.9188601071133	-9.982579386619593	35.72833899649338	0	0	0
128	1	1	-16.870235961574796	-9.738200640901814	35.540820964856245	0	0	0
129	1	1	-17.82161181603629	-9.778406647108335	35.23542374710111	0	0	0
130	1	1	-18.772987670497788	-9.534027901390557	35.047905715463976	0	0	0
131	1	1	-19.724363524959283	-9.574233907597078	34.74250849770884	0	0	0
132	1	1	-20.67573937942078	-9.3298551618793	34.55499046607171	0	0	0
133	1	1	-21.627115233882275	-9.37006116808582	34.24959324831657	0	0	0
134	1	1	-22.57849108834377	-9.125682422368042	34.06207521667944	0	0	0
135	1	1	-23.529866942805267	-9.165888428574563	33.7566779989243	0	0	0
136	1	1	-24.481242797266763	-8.921509682856785	33.56915996728717	0	0	0
137	1	1	-25.43261865172826	-8.961715689063306	33.263762749532034	0	0	0
138	1	1	-26.383994506189755	-8.717336943345527	33.0762447178949	0	0	0
139	1	1	-27.33537036065125	-8.757542949552048	32.770847500139766	0	0	0
140	1	1	-28.286746215112746	-8.51316420383427	32.58332946850263	0	0	0
141	1	1	-29.238122069574242	-8.553370210040791	32.2779322507475	0	0	0
142	1	1	-30.189497924035738	-8.308991464323013	32.090414219110365	0	0	0
143	1	1	-31.140873778497234	-8.349197470529534	31.785017001355225	0	0	0
144	1	1	-32.09224963295873	-8.104818724811755	31.597498969718096	0	0	0
145	1	1	-33.04362548742023	-8.145024731018276	31.292101751962957	0	0	0
146	1	1	-33.995001341881725	-7.900645985300499	31.104583720325827	0	0	0
147	1	1	-34.94637719634322	-7.940851991507019	30.799186502570688	0	0	0
148	1	1	-35.89775305080472	-7.6964732457892415	30.61166847093356	0	0	0
149	1	1	-36.84912890526621	-7.736679251995762	30.30627125317842	0	0	0
150	1	1	-37.80050475972771	-7.492300506277984	30.11875322154129	0	0	0
151	1	1	-38.751880614189204	-7.532506512484504	29.81335600378615	0	0	0
152	1	1	-14.728637517996917	-9.39234208441485	36.677395927150656	0	0	0
153	1	1	-14.489790783342029	-9.111331306055211	37.606903958202786	0	0	0
154	1	1	-14.25094404868714	-8.165848348962593	37.828295500932164	0	0	0
155	1	1	-14.012097314032252	-7.884837570602953	38.757803531984294	0	0	0
156	1	1	-13.773250579377363	-6.939354613510335	38.97919507471367	0	0	0
157	1	1	-13.534403844722474	-6.658343835150696	39.9087031057658	0	0	0
158	1	1	-13.295557110067586	-5.712860878058077	40.13009464849518	0	0	0
159	1	1	-13.056710375412697	-5.431850099698438	41.05960267954731	0	0	0
160	1	1	-12.817863640757809	-4.486367142605819	41.28099422227669	0	0	0
161	1	1	-12.57901690610292	-4.20535636424618	42.21050225332882	0	0	0
162	1	1	-12.340170171448031	-3.2598734071535613	42.4318937960582	0	0	0
163	1	1	-12.101323436793143	-2.978862628793922	43.36140182711033	0	0	0
164	1	1	-11.862476702138254	-2.0333796717013035	43.582793369839706	0	0	0
165	1	1	-11.623629967483366	-1.7523688933416643	44.512301400891836	0	0	0
166	1	1	-11.384783232828477	-0.8068859362490455	44.733692943621215	0	0	0
167	1	1	-11.145936498173588	-0.5258751578894063	45.663200974673344	0	0	0
168	1	1	-10.9070897635187	0.41960779920321256	45.88459251740272	0	0	0
169	1	1	-10.668243028863811	0.7006185775628517	46.81410054845485	0	0	0
170	1	1	-10.429396294208923	1.6461015346554706	47.03549209118423	0	0	0
171	1	1	-10.190549559554034	1.9271123130151098	47.96500012223636	0	0	0
172	1	1	-9.951702824899145	2.8725952701077286	48.18639166496574	0	0	0
173	1	1	-9.712856090244257	3.153606048467368	49.11589969601787	0	0	0
174	1	1	-9.474009355589368	4.0990890055599865	49.33729123874725	0	0	0
175	1	1	-9.23516262093448	4.380099783919626	50.26679926979938	0	0	0
176	1	1	-8.996315886279591	5.325582741012244	50.48819081252876	0	0	0
177	1	1	-9.831690332140298	5.855267418589381	50.63510465647452	0	0	0
178	1	1	-10.667064778001006	6.24053088339367	51.02717811628774	0	0	0
179	1	1	-11.502439223861714	6.772708192143722	50.88956689852383	0	0	0
180	1	1	-12.337813669722422	7.1579716569480105	51.28164035833706	0	0	0
181	1	1	-13.17318811558313	7.690148965698063	51.144029140573146	0	0	0
182	1	1	-14.008562561443838	8.075412430502352	51.53610260038637	0	0	0
183	1	1	-14.843937007304547	8.607589739252404	51.39849138262246	0	0	0
184	1	1	-15.679311453165255	8.992853204056694	51.790564842435685	0	0	0
185	1	1	-16.514685899025963	9.525030512806746	51.652953624671774	0	0	0
186	1	1	-17.35006034488667	9.910293977611035	52.045027084485	0	0	0
187	1	1	-18.18543479074738	10.442471286361087	51.90741586672109	0	0	0
188	1	1	-19.020809236608088	10.827734751165377	52.299489326534314	0	0	0
189	1	1	-19.856183682468796	11.359912059915429	52.1618781087704	0	0	0
190	1	1	-20.691558128329504	11.745175524719718	52.55395156858363	0	0	0
191	1	1	-21.526932574190212	12.27735283346977	52.416340350819716	0	0	0
192	1	1	-22.36230702005092	12.66261629827406	52.80841381063294	0	0	0
193	1	1	-23.19768146591163	13.194793607024112	52.67080259286903	0	0	0
194	1	1	-24.033055911772337	13.580057071828401	53.062876052682256	0	0	0
195	1	1	-24.868430357633045	14.112234380578453	52.925264834918345	0	0	0
196	1	1	-25.703804803493753	14.497497845382743	53.31733829473157	0	0	0
197	1	1	-26.53917924935446	15.029675154132795	53.17972707696766	0	0	0
198	1	1	-27.37455369521517	15.414938618937084	53.571800536780884	0	0	0
199	1	1	-28.209928141075878	15.947115927687136	53.43418931901697	0	0	0
200	1	1	-29.045302586936586	16.332379392491426	53.8262627788302	0	0	0
201	1	1	-29.880677032797294	16.864556701241476	53.68865156106629	0	0	0
202	1	1	-8.477773688279736	5.724709111999037	49.73200820966329	0	0	0
203	1	1	-7.9592314902798815	6.448453990026626	49.27669805117535	0	0	0
204	1	1	-7.440689292280027	6.416016265188748	48.42226152170062	0	0	0
205	1	1	-6.922147094280172	7.139761143216337	47.96695136321268	0	0	0
206	1	1	-6.403604896280317	7.107323418378459	47.11251483373795	0	0	0
207	1	1	-5.885062698280462	7.831068296406047	46.65720467525001	0	0	0
208	1	1	-5.366520500280608	7.79863057156817	45.802768145775275	0	0	0
209	1	1	-4.847978302280753	8.522375449595758	45.347457987287335	0	0	0
210	1	1	-4.329436104280898	8.48993772475788	44.4930214578126	0	0	0
211	1	1	-3.8108939062810427	9.213682602785468	44.03771129932466	0	0	0
212	1	1	-3.2923517082811875	9.18124487794759	43.18327476984993	0	0	0
213	1	1	-2.7738095102813323	9.904989755975178	42.72796461136199	0	0	0
214	1	1	-2.255267312281477	9.8725520311373	41.87352808188726	0	0	0
215	1	1	-1.7367251142816218	10.596296909164888	41.41821792339932	0	0	0
216	1	1	-1.2181829162817668	10.56385918432701	40.563781393924586	0	0	0
217	1	1	-0.6996407182819117	11.287604062354598	40.108471235436646	0	0	0
218	1	1	-0.18109852028205664	11.25516633751672	39.254034705961914	0	0	0
219	1	1	0.3374436777177985	11.978911215544308	38.798724547473974	0	0	0
220	1	1	0.8559858757176535	11.94647349070643	37.94428801799924	0	0	0
221	1	1	1.3745280737175087	12.670218368734018	37.4889778595113	0	0	0
222	1	1	1.8930702717173638	12.63778064389614	36.63454133003657	0	0	0
223	1	1	2.4116124697172188	13.361525521923728	36.17923117154863	0	0	0
224	1	1	2.9301546677170736	13.32908779708585	35.3247946420739	0	0	0
225	1	1	3.448696865716929	14.052832675113438	34.86948448358596	0	0	0
226	1	1	3.967239063716784	14.02039495027556	34.015047954111225	0	0	0
227	1	1	-8.440297603418568	5.343597781546749	51.3191656180667	0	0	0
228	1	1	-7.884279320557544	4.943711861530866	52.04781842983464	0	0	0
229	1	1	-7.328261037696521	5.374800747052924	52.75845620106808	0	0	0
230	1	1	-6.7722427548354975	4.974914827037041	53.48710901283602	0	0	0
231	1	1	-6.216224471974474	5.406003712559099	54.19774678406946	0	0	0
232	1	1	-5.660206189113451	5.006117792543216	54.9263995958374	0	0	0
233	1	1	-5.104187906252427	5.437206678065274	55.63703736707084	0	0	0
234	1	1	-4.548169623391404	5.037320758049391	56.36569017883878	0	0	0
235	1	1	-3.99215134053038	5.468409643571449	57.07632795007222	0	0	0
236	1	1	-3.4361330576693563	5.068523723555566	57.80498076184016	0	0	0
237	1	1	-2.8801147748083324	5.499612609077624	58.5156185330736	0	0	0
238	1	1	-2.3240964919473086	5.0997266890617405	59.24427134484154	0	0	0
239	1	1	-1.7680782090862848	5.530815574583799	59.95490911607498	0	0	0
240	1	1	-1.212059926225261	5.1309296545679155	60.68356192784292	0	0	0
241	1	1	-0.6560416433642372	5.562018540089974	61.39419969907636	0	0	0
242	1	1	-0.10002336050321348	5.1621326200740905	62.122852510844304	0	0	0
243	1	1	0.45599492235781025	5.593221505596149	62.83349028207774	0	0	0
244	1	1	1.012013205218834	5.193335585580265	63.562143093845684	0	0	0
245	1	1	1.5680314880798578	5.624424471102324	64.27278086507913	0	0	0
246	1	1	2.1240497709408817	5.22453855108644	65.00143367684707	0	0	0
247	1	1	2.6800680538019055	5.655627436608499	65.71207144808051	0	0	0
248	1	1	3.2360863366629293	5.255741516592615	66.44072425984845	0	0	0
249	1	1	3.792104619523953	5.686830402114674	67.15136203108189	0	0	0
250	1	1	4.348122902384977	5.28694448209879	67.88001484284983	0	0	0
251	1	1	4.904141185246	5.718033367620849	68.59065261408327	0	0	0
252	1	1	5.86053486326566	5.739049996625956	68.29932902432562	0	0	0
253	1	1	6.816928541285322	5.902912726125117	68.05754370937636	0	0	0
254	1	1	7.773322219304984	5.775451865866626	67.794741765422	0	0	0
255	1	1	8.729715897324645	5.939314595365787	67.55295645047275	0	0	0
256	1	1	9.686109575344307	5.811853735107296	67.29015450651839	0	0	0
257	1	1	10.64250325336397	5.975716464606458	67.04836919156914	0	0	0
258	1	1	11.598896931383631	5.848255604347966	66.78556724761478	0	0	0
259	1	1	12.555290609403293	6.012118333847128	66.54378193266552	0	0	0
260	1	1	13.511684287422955	5.884657473588637	66.28097998871117	0	0	0
261	1	1	14.468077965442617	6.048520203087798	66.03919467376191	0	0	0
262	1	1	15.42447164346228	5.921059342829307	65.77639272980755	0	0	0
263	1	1	16.38086532148194	6.084922072328468	65.5346074148583	0	0	0
264	1	1	17.337258999501604	5.957461212069977	65.27180547090394	0	0	0
265	1	1	18.293652677521266	6.1213239415691385	65.03002015595469	0	0	0
266	1	1	19.250046355540928	5.993863081310647	64.76721821200033	0	0	0
267	1	1	20.20644003356059	6.157725810809809	64.52543289705108	0	0	0
268	1	1	21.16283371158025	6.0302649505513175	64.26263095309672	0	0	0
269	1	1	22.119227389599914	6.194127680050479	64.02084563814746	0	0	0
270	1	1	23.075621067619576	6.066666819791988	63.758043694193105	0	0	0
271	1	1	24.032014745639238	6.230529549291149	63.51625837924386	0	0	0
272	1	1	24.9884084236589	6.103068689032658	63.2534564352895	0	0	0
273	1	1	25.94480210167856	6.2669314185318195	63.01167112034025	0	0	0
274	1	1	26.901195779698224	6.139470558273328	62.748869176385895	0	0	0
275	1	1	27.857589457717886	6.30333328777249	62.50708386143665	0	0	0
276	1	1	28.813983135737548	6.1758724275139985	62.24428191748229	0	0	0
277	1	1	4.826043672411415	5.194502114662599	69.4390722070118	0	0	0
278	1	1	4.74794615957683	4.316900953461392	69.91205950107724	0	0	0
279	1	1	4.669848646742245	4.287719385188717	70.90857804810092	0	0	0
280	1	1	4.5917511339076595	3.41011822398751	71.38156534216635	0	0	0
281	1	1	4.513653621073074	3.380936655714835	72.37808388919004	0	0	0
282	1	1	4.435556108238489	2.5033354945136272	72.85107118325547	0	0	0
283	1	1	4.357458595403904	2.474153926240952	73.84758973027915	0	0	0
284	1	1	4.279361082569319	1.5965527650397446	74.32057702434459	0	0	0
285	1	1	4.201263569734734	1.5673711967670696	75.31709557136827	0	0	0
286	1	1	4.123166056900149	0.689770035565862	75.7900828654337	0	0	0
287	1	1	4.045068544065564	0.6605884672931871	76.78660141245739	0	0	0
288	1	1	3.9669710312309787	-0.21701269390802047	77.25958870652282	0	0	0
289	1	1	3.8888735183963936	-0.24619426218069546	78.2561072535465	0	0	0
290	1	1	3.8107760055618085	-1.123795423381903	78.72909454761194	0	0	0
291	1	1	3.7326784927272234	-1.152976991654578	79.72561309463562	0	0	0
292	1	1	3.6545809798926383	-2.0305781528557856	80.19860038870105	0	0	0
293	1	1	3.576483467058053	-2.0597597211284606	81.19511893572474	0	0	0
294	1	1	3.498385954223468	-2.937360882329668	81.66810622979017	0	0	0
295	1	1	3.420288441388883	-2.966542450602343	82.66462477681385	0	0	0
296	1	1	3.342190928554298	-3.844143611803551	83.13761207087929	0	0	0
297	1	1	3.264093415719713	-3.873325180076226	84.13413061790297	0	0	0
298	1	1	3.1859959028851277	-4.750926341277434	84.6071179119684	0	0	0
299	1	1	3.1078983900505426	-4.780107909550108	85.60363645899209	0	0	0
300	1	1	3.0298008772159575	-5.657709070751316	86.07662375305752	0	0	0
301	1	1	2.9517033643813724	-5.68689063902399	87.0731423000812	0	0	0
302	1	1	4.582653170096101	6.652249272354101	68.74520389831736	0	0	0
303	1	1	4.261165154946202	7.384028336355519	69.34615718901821	0	0	0
304	1	1	3.939677139796302	8.270358684591024	69.01289457498582	0	0	0
305	1	1	3.6181891246464026	9.002137748592443	69.61384786568668	0	0	0
306	1	1	3.296701109496503	9.888468096827946	69.28058525165429	0	0	0
307	1	1	2.9752130943466035	10.620247160829365	69.88153854235514	0	0	0
308	1	1	2.653725079196704	11.506577509064869	69.54827592832275	0	0	0
309	1	1	2.3322370640468044	12.238356573066287	70.14922921902361	0	0	0
310	1	1	2.010749048896905	13.124686921301791	69.81596660499122	0	0	0
311	1	1	1.6892610337470053	13.85646598530321	70.41691989569208	0	0	0
312	1	1	1.3677730185971058	14.742796333538713	70.08365728165968	0	0	0
313	1	1	1.0462850034472062	15.474575397540132	70.68461057236054	0	0	0
314	1	1	0.7247969882973068	16.360905745775636	70.35134795832815	0	0	0
315	1	1	0.4033089731474073	17.092684809777055	70.952301249029	0	0	0
316	1	1	0.08182095799750788	17.979015158012558	70.61903863499661	0	0	0
317	1	1	-0.23966705715239156	18.710794222013977	71.21999192569747	0	0	0
318	1	1	-0.561155072302291	19.59712457024948	70.88672931166508	0	0	0
319	1	1	-0.8826430874521904	20.3289036342509	71.48768260236594	0	0	0
320	1	1	-1.2041311026020898	21.215233982486403	71.15441998833354	0	0	0
321	1	1	-1.5256191177519893	21.94701304648782	71.7553732790344	0	0	0
322	1	1	-1.8471071329018889	22.833343394723325	71.42211066500201	0	0	0
323	1	1	-2.1685951480517884	23.565122458724744	72.02306395570287	0	0	0
324	1	1	-2.490083163201688	24.451452806960248	71.68980134167047	0	0	0
325	1	1	-2.8115711783515875	25.183231870961666	72.29075463237133	0	0	0
326	1	1	-3.133059193501487	26.06956221919717	71.95749201833894	0	0	0
327	1	1	-3.0488249676184447	26.10226772426819	70.96158291348652	0	0	0
328	1	1	-2.9645907417354023	26.628546074929506	70.11545308135963	0	0	0
329	1	1	-2.88035651585236	26.158915320738405	69.2366177441617	0	0	0
330	1	1	-2.7961222899693174	26.68519367139972	68.39048791203481	0	0	0
331	1	1	-2.711888064086275	26.21556291720862	67.51165257483689	0	0	0
332	1	1	-2.6276538382032326	26.741841267869933	66.66552274271	0	0	0
333	1	1	-2.54341961232019	26.272210513678832	65.78668740551207	0	0	0
334	1	1	-2.459185386437148	26.798488864340147	64.94055757338518	0	0	0
335	1	1	-2.3749511605541054	26.328858110149046	64.06172223618725	0	0	0
336	1	1	-2.290716934671063	26.85513646081036	63.21559240406035	0	0	0
337	1	1	-2.2064827087880206	26.38550570661926	62.33675706686243	0	0	0
338	1	1	-2.122248482904978	26.911784057280574	61.490627234735534	0	0	0
339	1	1	-2.0380142570219357	26.442153303089473	60.611791897537614	0	0	0
340	1	1	-1.953780031138893	26.968431653750788	59.765662065410716	0	0	0
341	1	1	-1.8695458052558505	26.498800899559686	58.886826728212796	0	0	0
342	1	1	-1.7853115793728078	27.025079250221	58.0406968960859	0	0	0
343	1	1	-1.7010773534897652	26.5554484960299	57.16186155888798	0	0	0
344	1	1	-1.6168431276067226	27.081726846691215	56.31573172676108	0	0	0
345	1	1	-1.53260890172368	26.612096092500114	55.43689638956316	0	0	0
346	1	1	-1.4483746758406373	27.138374443161428	54.59076655743626	0	0	0
347	1	1	-1.3641404499575946	26.668743688970327	53.71193122023834	0	0	0
348	1	1	-1.279906224074552	27.19502203963164	52.86580138811144	0	0	0
349	1	1	-1.1956719981915094	26.72539128544054	51.98696605091352	0	0	0
350	1	1	-1.1114377723084667	27.251669636101855	51.140836218786625	0	0	0
351	1	1	-1.027203546425424	26.782038881910754	50.262000881588705	0	0	0
352	1	1	-2.581143436799	26.798593173181672	72.36234120709442	0	0	0
353	1	1	-2.029227680096511	27.22752790509972	73.07746636625043	0	0	0
354	1	1	-1.4773119233940226	28.06131182577324	73.06356057142195	0	0	0
355	1	1	-0.925396166691534	28.49024655769129	73.77868573057796	0	0	0
356	1	1	-0.3734804099890454	29.32403047836481	73.76477993574947	0	0	0
357	1	1	0.1784353467134432	29.75296521028286	74.47990509490549	0	0	0
358	1	1	0.7303511034159318	30.58674913095638	74.465999300077	0	0	0
359	1	1	1.2822668601184204	31.01568386287443	75.18112445923302	0	0	0
360	1	1	1.834182616820909	31.84946778354795	75.16721866440453	0	0	0
361	1	1	2.3860983735233976	32.278402515466	75.88234382356055	0	0	0
362	1	1	2.938014130225886	33.11218643613952	75.86843802873206	0	0	0
363	1	1	3.4899298869283744	33.541121168057565	76.58356318788807	0	0	0
364	1	1	4.041845643630863	34.37490508873108	76.56965739305959	0	0	0
365	1	1	4.593761400333351	34.80383982064913	77.2847825522156	0	0	0
366	1	1	5.1456771570358395	35.63762374132265	77.27087675738711	0	0	0
367	1	1	5.697592913738328	36.0665584732407	77.98600191654313	0	0	0
368	1	1	6.249508670440816	36.900342393914215	77.97209612171464	0	0	0
369	1	1	6.801424427143305	37.32927712583226	78.68722128087066	0	0	0
370	1	1	7.353340183845793	38.16306104650578	78.67331548604217	0	0	0
371	1	1	7.905255940548281	38.59199577842383	79.38844064519819	0	0	0
372	1	1	8.45717169725077	39.42577969909735	79.3745348503697	0	0	0
373	1	1	9.009087453953258	39.854714431015395	80.08966000952572	0	0	0
374	1	1	9.561003210655747	40.688498351688914	80.07575421469723	0	0	0
375	1	1	10.112918967358235	41.11743308360696	80.79087937385324	0	0	0
376	1	1	10.664834724060723	41.95121700428048	80.77697357902476	0	0	0
377	1	1	-4.091153889942466	26.195415209505843	72.21481589496531	0	0	0
378	1	1	-5.049248586383447	26.1757451579422	72.50059140427838	0	0	0
379	1	1	-6.007343282824428	26.413398983004935	72.66051392328278	0	0	0
380	1	1	-6.96543797926541	26.39372893144129	72.94628943259585	0	0	0
381	1	1	-7.923532675706391	26.631382756504028	73.10621195160024	0	0	0
382	1	1	-8.881627372147372	26.611712704940384	73.39198746091331	0	0	0
383	1	1	-9.839722068588355	26.84936653000312	73.55190997991771	0	0	0
384	1	1	-10.797816765029337	26.829696478439477	73.83768548923078	0	0	0
385	1	1	-11.755911461470319	27.067350303502213	73.99760800823518	0	0	0
386	1	1	-12.714006157911301	27.04768025193857	74.28338351754824	0	0	0
387	1	1	-13.672100854352284	27.285334077001306	74.44330603655264	0	0	0
388	1	1	-14.630195550793266	27.265664025437662	74.72908154586571	0	0	0
389	1	1	-15.588290247234248	27.503317850500398	74.88900406487011	0	0	0
390	1	1	-16.54638494367523	27.483647798936754	75.17477957418318	0	0	0
391	1	1	-17.50447964011621	27.72130162399949	75.33470209318757	0	0	0
392	1	1	-18.46257433655719	27.701631572435847	75.62047760250064	0	0	0
393	1	1	-19.42066903299817	27.939285397498583	75.78040012150504	0	0	0
394	1	1	-20.37876372943915	27.91961534593494	76.06617563081811	0	0	0
395	1	1	-21.33685842588013	28.157269170997676	76.2260981498225	0	0	0
396	1	1	-22.29495312232111	28.137599119434032	76.51187365913557	0	0	0
397	1	1	-23.25304781876209	28.37525294449677	76.67179617813997	0	0	0
398	1	1	-24.211142515203072	28.355582892933125	76.95757168745304	0	0	0
399	1	1	-25.169237211644052	28.59323671799586	77.11749420645744	0	0	0
400	1	1	-26.127331908085033	28.573566666432217	77.4032697157705	0	0	0
401	1	1	-27.085426604526013	28.811220491494954	77.5631922347749	0	0	0

Bonds

1	1	1	2
2	1	2	3
3	1	3	4
4	1	4	5
5	1	5	6
6	1	6	7
7	1	7	8
8	1	8	9
9	1	9	10
10	1	10	11
11	1	11	12
12	1	12	13
13	1	13	14
14	1	14	15
15	1	15	16
16	1	16	17
17	1	17	18
18	1	18	19
19	1	19	20
20	1	20	21
21	1	21	22
22	1	22	23
23	1	23	24
24	1	24	25
25	1	25	26
26	1	26	27
27	1	26	52
28	1	26	77
29	1	27	28
30	1	28	29
31	1	29	30
32	1	30	31
33	1	31	32
34	1	32	33
35	1	33	34
36	1	34	35
37	1	35	36
38	1	36	37
39	1	37	38
40	1	38	39
41	1	39	40
42	1	40	41
43	1	41	42
44	1	42	43
45	1	43	44
46	1	44	45
47	1	45	46
48	1	46	47
49	1	47	48
50	1	48	49
51	1	49	50
52	1	50	51
53	1	52	53
54	1	53	54
55	1	54	55
56	1	55	56
57	1	56	57
58	1	57	58
59	1	58	59
60	1	59	60
61	1	60	61
62	1	61	62
63	1	62	63
64	1	63	64
65	1	64	65
66	1	65	66
67	1	66	67
68	1	67	68
69	1	68	69
70	1	69	70
71	1	70	71
72	1	71	72
73	1	72	73
74	1	73	74
75	1	74	75
76	1	75	76
77	1	77	78
78	1	78	79
79	1	79	80
80	1	80	81
81	1	81	82
82	1	82	83
83	1	83	84
84	1	84	85
85	1	85	86
86	1	86	87
87	1	87	88
88	1	88	89
89	1	89	90
90	1	90	91
91	1	91	92
92	1	92	93
93	1	93	94
94	1	94	95
95	1	95	96
96	1	96	97
97	1	97	98
98	1	98	99
99	1	99	100
100	1	100	101
101	1	101	102
102	1	101	127
103	1	101	152
104	1	102	103
105	1	103	104
106	1	104	105
107	1	105	106
108	1	106	107
109	1	107	108
110	1	108	109
111	1	109	110
112	1	110	111
113	1	111	112
114	1	112	113
115	1	113	114
116	1	114	115
117	1	115	116
118	1	116	117
119	1	117	118
120	1	118	119
121	1	119	120
122	1	120	121
123	1	121	122
124	1	122	123
125	1	123	124
126	1	124	125
127	1	125	126
128	1	127	128
129	1	128	129
130	1	129	130
131	1	130	131
132	1	131	132
133	1	132	133
134	1	133	134
135	1	134	135
136	1	135	136
137	1	136	137
138	1	137	138
139	1	138	139
140	1	139	140
141	1	140	141
142	1	141	142
143	1	142	143
144	1	143	144
145	1	144	145
146	1	145	146
147	1	146	147
148	1	147	148
149	1	148	149
150	1	149	150
151	1	150	151
152	1	152	153
153	1	153	154
154	1	154	155
155	1	155	156
156	1	156	157
157	1	157	158
158	1	158	159
159	1	159	160
160	1	160	161
161	1	161	162
162	1	162	163
163	1	163	164
164	1	164	165
165	1	165	166
166	1	166	167
167	1	167	168
168	1	168	169
169	1	169	170
170	1	170	171
171	1	171	172
172	1	172	173
173	1	173	174
174	1	174	175
175	1	175	176
176	1	176	177
177	1	176	202
178	1	176	227
179	1	177	178
180	1	178	179
181	1	179	180
182	1	180	181
183	1	181	182
184	1	182	183
185	1	183	184
186	1	184	185
187	1	185	186
188	1	186	187
189	1	187	188
190	1	188	189
191	1	189	190
192	1	190	191
193	1	191	192
194	1	192	193
195	1	193	194
196	1	194	195
197	1	195	196