bb187nuc5bl31bn4d30tot500

497 atoms
496 bonds
510 angles

1 atom types
1 bond types
1 angle types

-1000 1000 xlo xhi
-1000 1000 ylo yhi
-1000 1000 zlo zhi

Masses

1 1

Atoms

1	1	1	0.0	0.0	0.0	0	0	0
2	1	1	0.0	0.0	1.0	0	0	0
3	1	1	0.0	-0.49999999999999994	1.8660254037844388	0	0	0
4	1	1	0.0	0.0	2.7320508075688776	0	0	0
5	1	1	0.0	-0.49999999999999994	3.5980762113533165	0	0	0
6	1	1	0.0	0.0	4.464101615137755	0	0	0
7	1	1	0.0	-0.49999999999999994	5.330127018922194	0	0	0
8	1	1	0.0	0.0	6.196152422706632	0	0	0
9	1	1	0.0	-0.49999999999999994	7.06217782649107	0	0	0
10	1	1	0.0	0.0	7.928203230275509	0	0	0
11	1	1	0.0	-0.49999999999999994	8.794228634059948	0	0	0
12	1	1	0.0	0.0	9.660254037844387	0	0	0
13	1	1	0.0	-0.49999999999999994	10.526279441628827	0	0	0
14	1	1	0.0	0.0	11.392304845413266	0	0	0
15	1	1	0.0	-0.49999999999999994	12.258330249197705	0	0	0
16	1	1	0.0	0.0	13.124355652982144	0	0	0
17	1	1	0.0	-0.49999999999999994	13.990381056766584	0	0	0
18	1	1	0.0	0.0	14.856406460551023	0	0	0
19	1	1	0.0	-0.49999999999999994	15.722431864335462	0	0	0
20	1	1	0.0	0.0	16.5884572681199	0	0	0
21	1	1	0.0	-0.49999999999999994	17.454482671904337	0	0	0
22	1	1	0.0	0.0	18.320508075688775	0	0	0
23	1	1	0.0	-0.49999999999999994	19.186533479473212	0	0	0
24	1	1	0.0	0.0	20.05255888325765	0	0	0
25	1	1	0.0	-0.49999999999999994	20.918584287042087	0	0	0
26	1	1	0.0	0.0	21.784609690826525	0	0	0
27	1	1	0.0	-0.49999999999999994	22.650635094610962	0	0	0
28	1	1	0.0	0.0	23.5166604983954	0	0	0
29	1	1	0.0	-0.49999999999999994	24.382685902179837	0	0	0
30	1	1	0.0	0.0	25.248711305964274	0	0	0
31	1	1	0.0	-0.49999999999999994	26.114736709748712	0	0	0
32	1	1	0.0	0.0	26.98076211353315	0	0	0
33	1	1	0.7853180930758343	0.6184411966554402	27.009151882238097	0	0	0
34	1	1	1.5706361861516696	1.1398320993534252	27.342958741471868	0	0	0
35	1	1	2.3559542792275048	1.6896127707563593	27.058324404050197	0	0	0
36	1	1	3.14127237230334	2.2110036734543446	27.392131263283968	0	0	0
37	1	1	3.926590465379175	2.760784344857279	27.107496925862296	0	0	0
38	1	1	4.71190855845501	3.282175247555264	27.441303785096068	0	0	0
39	1	1	5.497226651530846	3.831955918958198	27.156669447674396	0	0	0
40	1	1	6.282544744606681	4.353346821656183	27.490476306908167	0	0	0
41	1	1	7.067862837682516	4.9031274930591175	27.205841969486496	0	0	0
42	1	1	7.853180930758351	5.424518395757103	27.539648828720267	0	0	0
43	1	1	8.638499023834186	5.974299067160037	27.255014491298596	0	0	0
44	1	1	9.42381711691002	6.495689969858022	27.588821350532367	0	0	0
45	1	1	10.209135209985856	7.045470641260956	27.304187013110695	0	0	0
46	1	1	10.994453303061691	7.566861543958941	27.637993872344467	0	0	0
47	1	1	11.779771396137527	8.116642215361875	27.353359534922795	0	0	0
48	1	1	12.565089489213362	8.638033118059859	27.687166394156566	0	0	0
49	1	1	13.350407582289197	9.187813789462792	27.402532056734895	0	0	0
50	1	1	14.135725675365032	9.709204692160778	27.736338915968666	0	0	0
51	1	1	14.921043768440867	10.258985363563712	27.451704578546995	0	0	0
52	1	1	15.706361861516703	10.780376266261698	27.785511437780766	0	0	0
53	1	1	16.491679954592538	11.330156937664631	27.500877100359094	0	0	0
54	1	1	17.27699804766837	11.851547840362617	27.834683959592866	0	0	0
55	1	1	18.062316140744205	12.40132851176555	27.550049622171194	0	0	0
56	1	1	18.847634233820038	12.922719414463536	27.883856481404965	0	0	0
57	1	1	19.63295232689587	13.47250008586647	27.599222143983294	0	0	0
58	1	1	20.418270419971705	13.993890988564456	27.933029003217065	0	0	0
59	1	1	21.20358851304754	14.543671659967389	27.648394665795394	0	0	0
60	1	1	21.988906606123372	15.065062562665375	27.982201525029165	0	0	0
61	1	1	22.774224699199205	15.614843234068308	27.697567187607493	0	0	0
62	1	1	23.55954279227504	16.136234136766294	28.031374046841265	0	0	0
63	1	1	24.344860885350872	16.68601480816923	27.746739709419593	0	0	0
64	1	1	0.05887872050064004	-0.6478540237092674	27.7402477685892	0	0	0
65	1	1	0.11775744100128013	-1.588654893713485	28.07405462782297	0	0	0
66	1	1	0.17663616150192024	-1.7699701086616517	29.05571551076601	0	0	0
67	1	1	0.23551488200256032	-2.7107709786658694	29.38952236999978	0	0	0
68	1	1	0.2943936025032004	-2.8920861936140363	30.37118325294282	0	0	0
69	1	1	0.3532723230038405	-3.832887063618254	30.704990112176592	0	0	0
70	1	1	0.41215104350448056	-4.014202278566421	31.68665099511963	0	0	0
71	1	1	0.47102976400512064	-4.955003148570638	32.0204578543534	0	0	0
72	1	1	0.5299084845057608	-5.1363183635188046	33.00211873729644	0	0	0
73	1	1	0.5887872050064009	-6.077119233523022	33.33592559653022	0	0	0
74	1	1	0.647665925507041	-6.2584344484711885	34.317586479473256	0	0	0
75	1	1	0.7065446460076812	-7.199235318475406	34.65139333870703	0	0	0
76	1	1	0.7654233665083213	-7.380550533423572	35.63305422165007	0	0	0
77	1	1	0.8243020870089615	-8.32135140342779	35.966861080883845	0	0	0
78	1	1	0.8831808075096016	-8.502666618375958	36.948521963826884	0	0	0
79	1	1	0.9420595280102417	-9.443467488380175	37.28232882306066	0	0	0
80	1	1	1.0009382485108818	-9.624782703328343	38.2639897060037	0	0	0
81	1	1	1.0598169690115218	-10.56558357333256	38.59779656523747	0	0	0
82	1	1	1.1186956895121618	-10.746898788280728	39.57945744818051	0	0	0
83	1	1	1.1775744100128018	-11.687699658284945	39.91326430741429	0	0	0
84	1	1	1.2364531305134419	-11.869014873233112	40.89492519035733	0	0	0
85	1	1	1.2953318510140819	-12.80981574323733	41.2287320495911	0	0	0
86	1	1	1.354210571514722	-12.991130958185497	42.21039293253414	0	0	0
87	1	1	1.413089292015362	-13.931931828189715	42.544199791767916	0	0	0
88	1	1	1.471968012516002	-14.113247043137882	43.525860674710955	0	0	0
89	1	1	1.530846733016642	-15.0540479131421	43.85966753394473	0	0	0
90	1	1	1.589725453517282	-15.235363128090267	44.84132841688777	0	0	0
91	1	1	1.648604174017922	-16.176163998094484	45.175135276121544	0	0	0
92	1	1	1.707482894518562	-16.35747921304265	46.156796159064584	0	0	0
93	1	1	1.766361615019202	-17.29828008304687	46.49060301829836	0	0	0
94	1	1	1.825240335519842	-17.479595297995036	47.4722639012414	0	0	0
95	1	1	-0.8441968135764741	0.53012311590448	27.060142349933976	0	0	0
96	1	1	-1.6883936271529492	0.949533083210709	27.393949209167747	0	0	0
97	1	1	-2.532590440729424	1.448323286917765	27.197632952497038	0	0	0
98	1	1	-3.3767872543058988	1.867733254223994	27.53143981173081	0	0	0
99	1	1	-4.220984067882374	2.36652345793105	27.3351235550601	0	0	0
100	1	1	-5.065180881458849	2.7859334252372787	27.66893041429387	0	0	0
101	1	1	-5.909377695035324	3.284723628944335	27.472614157623163	0	0	0
102	1	1	-6.753574508611798	3.7041335962505637	27.806421016856934	0	0	0
103	1	1	-7.597771322188273	4.202923799957619	27.610104760186225	0	0	0
104	1	1	-8.441968135764748	4.622333767263848	27.943911619419996	0	0	0
105	1	1	-9.286164949341224	5.121123970970904	27.747595362749287	0	0	0
106	1	1	-10.1303617629177	5.540533938277133	28.08140222198306	0	0	0
107	1	1	-10.974558576494175	6.039324141984189	27.88508596531235	0	0	0
108	1	1	-11.81875539007065	6.458734109290418	28.21889282454612	0	0	0
109	1	1	-12.662952203647126	6.957524312997474	28.02257656787541	0	0	0
110	1	1	-13.507149017223602	7.376934280303703	28.356383427109183	0	0	0
111	1	1	-14.351345830800078	7.875724484010759	28.160067170438474	0	0	0
112	1	1	-15.195542644376554	8.295134451316988	28.493874029672245	0	0	0
113	1	1	-16.03973945795303	8.793924655024044	28.297557773001536	0	0	0
114	1	1	-16.883936271529503	9.213334622330274	28.631364632235307	0	0	0
115	1	1	-17.728133085105977	9.71212482603733	28.435048375564598	0	0	0
116	1	1	-18.57232989868245	10.13153479334356	28.76885523479837	0	0	0
117	1	1	-19.416526712258925	10.630324997050616	28.57253897812766	0	0	0
118	1	1	-20.2607235258354	11.049734964356846	28.90634583736143	0	0	0
119	1	1	-21.104920339411873	11.548525168063902	28.710029580690723	0	0	0
120	1	1	-21.949117152988347	11.967935135370132	29.043836439924494	0	0	0
121	1	1	-22.79331396656482	12.466725339077188	28.847520183253785	0	0	0
122	1	1	-23.637510780141294	12.886135306383418	29.181327042487556	0	0	0
123	1	1	-24.48170759371777	13.384925510090474	28.985010785816847	0	0	0
124	1	1	-25.325904407294242	13.804335477396704	29.31881764505062	0	0	0
125	1	1	-26.170101220870716	14.30312568110376	29.12250138837991	0	0	0
126	1	1	-26.799743190318598	13.70946484228529	28.6213848363053	0	0	0
127	1	1	-27.42938515976648	13.445897750673819	27.890574752542587	0	0	0
128	1	1	-28.05902712921436	12.68121410698774	27.753425507598344	0	0	0
129	1	1	-28.688669098662242	12.41764701537627	27.02261542383563	0	0	0
130	1	1	-29.318311068110123	11.652963371690191	26.885466178891388	0	0	0
131	1	1	-29.947953037558005	11.38939628007872	26.154656095128676	0	0	0
132	1	1	-30.577595007005886	10.624712636392642	26.017506850184432	0	0	0
133	1	1	-31.207236976453768	10.361145544781172	25.28669676642172	0	0	0
134	1	1	-31.83687894590165	9.596461901095093	25.149547521477476	0	0	0
135	1	1	-32.46652091534953	9.332894809483623	24.418737437714764	0	0	0
136	1	1	-33.09616288479741	8.568211165797544	24.28158819277052	0	0	0
137	1	1	-33.72580485424529	8.304644074186074	23.55077810900781	0	0	0
138	1	1	-34.35544682369317	7.5399604304999945	23.413628864063565	0	0	0
139	1	1	-34.98508879314105	7.276393338888524	22.682818780300853	0	0	0
140	1	1	-35.614730762588934	6.511709695202445	22.54566953535661	0	0	0
141	1	1	-36.244372732036815	6.248142603590974	21.814859451593897	0	0	0
142	1	1	-36.8740147014847	5.483458959904895	21.677710206649653	0	0	0
143	1	1	-37.50365667093258	5.219891868293424	20.94690012288694	0	0	0
144	1	1	-38.13329864038046	4.455208224607345	20.809750877942697	0	0	0
145	1	1	-38.76294060982834	4.1916411329958745	20.078940794179985	0	0	0
146	1	1	-39.39258257927622	3.4269574893097956	19.94179154923574	0	0	0
147	1	1	-40.022224548724104	3.163390397698325	19.21098146547303	0	0	0
148	1	1	-40.651866518171985	2.398706754012246	19.073832220528786	0	0	0
149	1	1	-41.28150848761987	2.1351396624007757	18.343022136766074	0	0	0
150	1	1	-41.91115045706775	1.3704560187146968	18.20587289182183	0	0	0
151	1	1	-42.54079242651563	1.1068889271032263	17.475062808059118	0	0	0
152	1	1	-43.17043439596351	0.3422052834171473	17.337913563114874	0	0	0
153	1	1	-43.80007636541139	0.07863819180567683	16.607103479352162	0	0	0
154	1	1	-44.429718334859274	-0.6860454518804022	16.46995423440792	0	0	0
155	1	1	-45.059360304307155	-0.9496125434918727	15.739144150645204	0	0	0
156	1	1	-45.68900227375504	-1.7142961871779518	15.60199490570096	0	0	0
157	1	1	-25.960582293695605	15.10902124257217	28.568755812180058	0	0	0
158	1	1	-25.75106336652049	16.083820059700862	28.49214585669194	0	0	0
159	1	1	-25.541544439345376	16.504873300629704	27.609640339735414	0	0	0
160	1	1	-25.33202551217026	17.479672117758398	27.533030384247297	0	0	0
161	1	1	-25.122506584995147	17.90072535868724	26.65052486729077	0	0	0
162	1	1	-24.912987657820032	18.875524175815933	26.573914911802653	0	0	0
163	1	1	-24.703468730644918	19.296577416744775	25.691409394846126	0	0	0
164	1	1	-24.493949803469803	20.271376233873468	25.61479943935801	0	0	0
165	1	1	-24.28443087629469	20.69242947480231	24.73229392240148	0	0	0
166	1	1	-24.074911949119574	21.667228291931004	24.655683966913365	0	0	0
167	1	1	-23.86539302194446	22.088281532859845	23.773178449956838	0	0	0
168	1	1	-23.655874094769345	23.06308034998854	23.69656849446872	0	0	0
169	1	1	-23.44635516759423	23.48413359091738	22.814062977512194	0	0	0
170	1	1	-23.236836240419116	24.458932408046074	22.737453022024077	0	0	0
171	1	1	-23.027317313244	24.879985648974916	21.85494750506755	0	0	0
172	1	1	-22.817798386068887	25.85478446610361	21.778337549579433	0	0	0
173	1	1	-22.608279458893772	26.27583770703245	20.895832032622906	0	0	0
174	1	1	-22.398760531718658	27.250636524161145	20.81922207713479	0	0	0
175	1	1	-22.189241604543543	27.671689765089987	19.93671656017826	0	0	0
176	1	1	-21.97972267736843	28.64648858221868	19.860106604690145	0	0	0
177	1	1	-21.770203750193314	29.067541823147522	18.977601087733618	0	0	0
178	1	1	-21.5606848230182	30.042340640276215	18.9009911322455	0	0	0
179	1	1	-21.351165895843085	30.463393881205057	18.018485615288974	0	0	0
180	1	1	-21.14164696866797	31.43819269833375	17.941875659800857	0	0	0
181	1	1	-20.932128041492856	31.859245939262593	17.05937014284433	0	0	0
182	1	1	-20.72260911431774	32.834044756391286	16.982760187356213	0	0	0
183	1	1	-20.513090187142627	33.25509799732013	16.100254670399686	0	0	0
184	1	1	-20.303571259967512	34.22989681444882	16.02364471491157	0	0	0
185	1	1	-20.094052332792398	34.65095005537766	15.141139197955042	0	0	0
186	1	1	-19.884533405617283	35.62574887250636	15.064529242466925	0	0	0
187	1	1	-19.67501447844217	36.0468021134352	14.182023725510398	0	0	0
188	1	1	-26.595374239343304	14.590389732401896	29.980768377487024	0	0	0
189	1	1	-27.02064725781589	14.410034203866559	30.867681418932438	0	0	0
190	1	1	-27.44592027628848	15.087945664438339	31.467330409079715	0	0	0
191	1	1	-27.871193294761067	14.907590135903002	32.354243450525125	0	0	0
192	1	1	-28.296466313233655	15.585501596474781	32.953892440672405	0	0	0
193	1	1	-28.721739331706242	15.405146067939445	33.840805482117815	0	0	0
194	1	1	-29.14701235017883	16.083057528511226	34.440454472265095	0	0	0
195	1	1	-29.572285368651418	15.90270199997589	35.327367513710506	0	0	0
196	1	1	-29.997558387124005	16.58061346054767	35.927016503857786	0	0	0
197	1	1	-30.422831405596593	16.400257932012334	36.813929545303196	0	0	0
198	1	1	-30.84810442406918	17.078169392584115	37.413578535450476	0	0	0
199	1	1	-31.27337744254177	16.89781386404878	38.30049157689589	0	0	0
200	1	1	-31.698650461014356	17.57572532462056	38.90014056704317	0	0	0
201	1	1	-32.12392347948694	17.395369796085223	39.78705360848858	0	0	0
202	1	1	-32.54919649795953	18.073281256657005	40.38670259863586	0	0	0
203	1	1	-32.974469516432116	17.892925728121668	41.27361564008127	0	0	0
204	1	1	-33.3997425349047	18.57083718869345	41.87326463022855	0	0	0
205	1	1	-33.82501555337729	18.390481660158112	42.76017767167396	0	0	0
206	1	1	-34.25028857184988	19.068393120729894	43.35982666182124	0	0	0
207	1	1	-34.67556159032247	18.888037592194557	44.24673970326665	0	0	0
208	1	1	-35.100834608795054	19.56594905276634	44.84638869341393	0	0	0
209	1	1	-35.52610762726764	19.385593524231002	45.73330173485934	0	0	0
210	1	1	-35.95138064574023	20.063504984802783	46.33295072500662	0	0	0
211	1	1	-36.37665366421282	19.883149456267446	47.21986376645203	0	0	0
212	1	1	-36.801926682685405	20.561060916839228	47.81951275659931	0	0	0
213	1	1	-37.22719970115799	20.38070538830389	48.70642579804472	0	0	0
214	1	1	-37.65247271963058	21.058616848875673	49.306074788192	0	0	0
215	1	1	-38.07774573810317	20.878261320340336	50.19298782963741	0	0	0
216	1	1	-38.503018756575756	21.556172780912117	50.79263681978469	0	0	0
217	1	1	-38.92829177504834	21.37581725237678	51.6795498612301	0	0	0
218	1	1	-39.35356479352093	22.053728712948562	52.27919885137738	0	0	0
219	1	1	-40.3125336688958	21.81261809635476	52.42834430597799	0	0	0
220	1	1	-41.27150254427067	21.529237449962096	52.43695275022419	0	0	0
221	1	1	-42.23047141964553	21.395002258170038	52.68667181106419	0	0	0
222	1	1	-43.1894402950204	21.111621611777373	52.69528025531039	0	0	0
223	1	1	-44.14840917039526	20.977386419985315	52.94499931615039	0	0	0
224	1	1	-45.107378045770126	20.69400577359265	52.95360776039659	0	0	0
225	1	1	-46.06634692114499	20.559770581800592	53.20332682123659	0	0	0
226	1	1	-47.025315796519855	20.276389935407927	53.211935265482786	0	0	0
227	1	1	-47.98428467189472	20.14215474361587	53.46165432632279	0	0	0
228	1	1	-48.943253547269585	19.858774097223204	53.470262770568986	0	0	0
229	1	1	-49.90222242264445	19.724538905431146	53.71998183140899	0	0	0
230	1	1	-50.861191298019314	19.44115825903848	53.728590275655186	0	0	0
231	1	1	-51.82016017339418	19.306923067246423	53.97830933649519	0	0	0
232	1	1	-52.77912904876904	19.023542420853758	53.986917780741386	0	0	0
233	1	1	-53.73809792414391	18.8893072290617	54.23663684158139	0	0	0
234	1	1	-54.69706679951877	18.605926582669035	54.245245285827586	0	0	0
235	1	1	-55.65603567489364	18.471691390876977	54.49496434666759	0	0	0
236	1	1	-56.6150045502685	18.188310744484312	54.503572790913786	0	0	0
237	1	1	-57.573973425643366	18.054075552692254	54.75329185175379	0	0	0
238	1	1	-58.53294230101823	17.77069490629959	54.761900295999986	0	0	0
239	1	1	-59.491911176393096	17.63645971450753	55.01161935683999	0	0	0
240	1	1	-60.45088005176796	17.353079068114866	55.020227801086186	0	0	0
241	1	1	-61.409848927142825	17.218843876322808	55.269946861926186	0	0	0
242	1	1	-62.36881780251769	16.935463229930143	55.278555306172386	0	0	0
243	1	1	-63.327786677892554	16.801228038138085	55.528274367012386	0	0	0
244	1	1	-64.28675555326743	16.51784739174542	55.536882811258586	0	0	0
245	1	1	-65.24572442864229	16.38361219995336	55.786601872098586	0	0	0
246	1	1	-66.20469330401716	16.100231553560697	55.795210316344786	0	0	0
247	1	1	-67.16366217939202	15.965996361768639	56.044929377184786	0	0	0
248	1	1	-68.12263105476688	15.682615715375976	56.053537821430986	0	0	0
249	1	1	-69.08159993014175	15.548380523583917	56.303256882270986	0	0	0
250	1	1	-39.29979197771121	22.956794739403584	51.85307652604974	0	0	0
251	1	1	-39.246019161901486	23.95193402227212	51.935576780423816	0	0	0
252	1	1	-39.192246346091764	24.520950979813016	51.11501100834287	0	0	0
253	1	1	-39.13847353028204	25.51609026268155	51.197511262716944	0	0	0
254	1	1	-39.08470071447232	26.085107220222447	50.376945490636	0	0	0
255	1	1	-39.0309278986626	27.080246503090983	50.45944574501007	0	0	0
256	1	1	-38.977155082852875	27.64926346063188	49.638879972929125	0	0	0
257	1	1	-38.92338226704315	28.644402743500414	49.7213802273032	0	0	0
258	1	1	-38.86960945123343	29.21341970104131	48.90081445522225	0	0	0
259	1	1	-38.81583663542371	30.208558983909846	48.98331470959633	0	0	0
260	1	1	-38.762063819613985	30.777575941450742	48.16274893751538	0	0	0
261	1	1	-38.70829100380426	31.772715224319278	48.24524919188946	0	0	0
262	1	1	-38.65451818799454	32.34173218186017	47.42468341980851	0	0	0
263	1	1	-38.60074537218482	33.33687146472871	47.507183674182585	0	0	0
264	1	1	-38.546972556375096	33.905888422269605	46.68661790210164	0	0	0
265	1	1	-38.49319974056537	34.90102770513814	46.76911815647571	0	0	0
266	1	1	-38.43942692475565	35.47004466267904	45.948552384394766	0	0	0
267	1	1	-38.38565410894593	36.46518394554757	46.03105263876884	0	0	0
268	1	1	-38.331881293136206	37.03420090308847	45.210486866687894	0	0	0
269	1	1	-38.278108477326484	38.029340185957004	45.29298712106197	0	0	0
270	1	1	-38.22433566151676	38.5983571434979	44.47242134898102	0	0	0
271	1	1	-38.17056284570704	39.593496426366436	44.5549216033551	0	0	0
272	1	1	-38.11679002989732	40.16251338390733	43.73435583127415	0	0	0
273	1	1	-38.063017214087594	41.15765266677587	43.816856085648226	0	0	0
274	1	1	-38.00924439827787	41.72666962431676	42.99629031356728	0	0	0
275	1	1	-37.95547158246815	42.7218089071853	43.078790567941354	0	0	0
276	1	1	-37.90169876665843	43.290825864726195	42.25822479586041	0	0	0
277	1	1	-37.847925950848705	44.28596514759473	42.34072505023448	0	0	0
278	1	1	-37.79415313503898	44.854982105135626	41.520159278153535	0	0	0
279	1	1	-37.74038031922926	45.85012138800416	41.60265953252761	0	0	0
280	1	1	-37.68660750341954	46.41913834554506	40.782093760446664	0	0	0
281	1	1	-38.87424588579539	22.07064778956348	53.15667656023573	0	0	0
282	1	1	-38.39492697806985	21.6465612852914	53.92505408566908	0	0	0
283	1	1	-37.915608070344305	22.09995248987767	54.676512534487514	0	0	0
284	1	1	-37.43628916261876	21.67586598560559	55.444890059920866	0	0	0
285	1	1	-36.95697025489322	22.129257190191858	56.1963485087393	0	0	0
286	1	1	-36.47765134716768	21.70517068591978	56.96472603417265	0	0	0
287	1	1	-35.99833243944214	22.158561890506046	57.71618448299108	0	0	0
288	1	1	-35.519013531716595	21.734475386233967	58.48456200842443	0	0	0
289	1	1	-35.03969462399105	22.187866590820235	59.236020457242866	0	0	0
290	1	1	-34.56037571626551	21.763780086548156	60.00439798267622	0	0	0
291	1	1	-34.08105680853997	22.217171291134424	60.75585643149465	0	0	0
292	1	1	-33.60173790081443	21.793084786862345	61.524233956928	0	0	0
293	1	1	-33.122418993088885	22.246475991448612	62.27569240574643	0	0	0
294	1	1	-32.64310008536334	21.822389487176533	63.044069931179784	0	0	0
295	1	1	-32.1637811776378	22.2757806917628	63.79552837999822	0	0	0
296	1	1	-31.68446226991226	21.851694187490722	64.56390590543157	0	0	0
297	1	1	-31.205143362186718	22.30508539207699	65.31536435425001	0	0	0
298	1	1	-30.725824454461176	21.88099888780491	66.08374187968336	0	0	0
299	1	1	-30.246505546735634	22.33439009239118	66.8352003285018	0	0	0
300	1	1	-29.76718663901009	21.9103035881191	67.60357785393515	0	0	0
301	1	1	-29.28786773128455	22.363694792705367	68.35503630275359	0	0	0
302	1	1	-28.808548823559008	21.939608288433288	69.12341382818694	0	0	0
303	1	1	-28.329229915833466	22.392999493019556	69.87487227700538	0	0	0
304	1	1	-27.849911008107924	21.968912988747476	70.64324980243873	0	0	0
305	1	1	-27.37059210038238	22.422304193333744	71.39470825125717	0	0	0
306	1	1	-26.89127319265684	21.998217689061665	72.16308577669052	0	0	0
307	1	1	-26.411954284931298	22.451608893647933	72.91454422550896	0	0	0
308	1	1	-25.932635377205756	22.027522389375854	73.68292175094231	0	0	0
309	1	1	-25.453316469480214	22.48091359396212	74.43438019976075	0	0	0
310	1	1	-24.973997561754672	22.056827089690042	75.2027577251941	0	0	0
311	1	1	-24.49467865402913	22.51021829427631	75.95421617401254	0	0	0
312	1	1	-24.358088254060554	23.47495865507366	75.72922928798353	0	0	0
313	1	1	-24.221497854091982	24.42294175859483	76.01675510956272	0	0	0
314	1	1	-24.08490745412341	25.145937976086994	75.33954057034457	0	0	0
315	1	1	-23.94831705415484	26.093921079608165	75.62706639192376	0	0	0
316	1	1	-23.811726654186266	26.81691729710033	74.9498518527056	0	0	0
317	1	1	-23.675136254217694	27.7649004006215	75.2373776742848	0	0	0
318	1	1	-23.538545854249122	28.487896618113663	74.56016313506665	0	0	0
319	1	1	-23.40195545428055	29.435879721634834	74.84768895664584	0	0	0
320	1	1	-23.265365054311978	30.158875939126997	74.17047441742768	0	0	0
321	1	1	-23.128774654343406	31.106859042648168	74.45800023900688	0	0	0
322	1	1	-22.992184254374834	31.82985526014033	73.78078569978872	0	0	0
323	1	1	-22.855593854406262	32.7778383636615	74.06831152136792	0	0	0
324	1	1	-22.71900345443769	33.50083458115366	73.39109698214976	0	0	0
325	1	1	-22.582413054469118	34.448817684674836	73.67862280372896	0	0	0
326	1	1	-22.445822654500546	35.171813902166996	73.0014082645108	0	0	0
327	1	1	-22.309232254531974	36.11979700568817	73.28893408609	0	0	0
328	1	1	-22.172641854563402	36.84279322318033	72.61171954687184	0	0	0
329	1	1	-22.03605145459483	37.790776326701504	72.89924536845103	0	0	0
330	1	1	-21.899461054626258	38.513772544193664	72.22203082923288	0	0	0
331	1	1	-21.762870654657686	39.46175564771484	72.50955665081207	0	0	0
332	1	1	-21.626280254689114	40.184751865207	71.83234211159392	0	0	0
333	1	1	-21.48968985472054	41.13273496872817	72.11986793317311	0	0	0
334	1	1	-21.35309945475197	41.85573118622033	71.44265339395496	0	0	0
335	1	1	-21.216509054783398	42.80371428974151	71.73017921553415	0	0	0
336	1	1	-21.079918654814826	43.526710507233666	71.052964676316	0	0	0
337	1	1	-20.943328254846254	44.47469361075484	71.34049049789519	0	0	0
338	1	1	-20.80673785487768	45.197689828247	70.66327595867703	0	0	0
339	1	1	-20.67014745490911	46.145672931768175	70.95080178025623	0	0	0
340	1	1	-20.533557054940538	46.868669149260334	70.27358724103807	0	0	0
341	1	1	-20.396966654971965	47.81665225278151	70.56111306261727	0	0	0
342	1	1	-20.260376255003393	48.53964847027367	69.88389852339911	0	0	0
343	1	1	-23.60679746243439	22.0725825814144	76.09613859098803	0	0	0
344	1	1	-22.718916270839657	21.62261772798493	76.00022915302435	0	0	0
345	1	1	-21.83103507924492	21.314575291530957	76.34195542792257	0	0	0
346	1	1	-20.943153887650183	20.864610438101487	76.24604598995889	0	0	0
347	1	1	-20.055272696055447	20.556568001647513	76.58777226485711	0	0	0
348	1	1	-19.16739150446071	20.106603148218042	76.49186282689342	0	0	0
349	1	1	-18.279510312865973	19.79856071176407	76.83358910179165	0	0	0
350	1	1	-17.391629121271237	19.348595858334598	76.73767966382796	0	0	0
351	1	1	-16.5037479296765	19.040553421880624	77.07940593872618	0	0	0
352	1	1	-15.615866738081765	18.590588568451153	76.9834965007625	0	0	0
353	1	1	-14.72798554648703	18.28254613199718	77.32522277566072	0	0	0
354	1	1	-13.840104354892295	17.83258127856771	77.22931333769704	0	0	0
355	1	1	-12.95222316329756	17.524538842113735	77.57103961259526	0	0	0
356	1	1	-12.064341971702826	17.074573988684264	77.47513017463157	0	0	0
357	1	1	-11.17646078010809	16.76653155223029	77.8168564495298	0	0	0
358	1	1	-10.288579588513356	16.31656669880082	77.72094701156611	0	0	0
359	1	1	-9.40069839691862	16.008524262346846	78.06267328646433	0	0	0
360	1	1	-8.512817205323886	15.558559408917377	77.96676384850065	0	0	0
361	1	1	-7.624936013729151	15.250516972463402	78.30849012339887	0	0	0
362	1	1	-6.737054822134416	14.800552119033933	78.21258068543519	0	0	0
363	1	1	-5.849173630539681	14.492509682579957	78.5543069603334	0	0	0
364	1	1	-4.961292438944946	14.042544829150488	78.45839752236972	0	0	0
365	1	1	-4.0734112473502115	13.734502392696513	78.80012379726794	0	0	0
366	1	1	-3.1855300557554767	13.284537539267044	78.70421435930426	0	0	0
367	1	1	-2.2976488641607418	12.976495102813068	79.04594063420248	0	0	0
368	1	1	-1.4097676725660069	12.5265302493836	78.9500311962388	0	0	0
369	1	1	-0.521886480971272	12.218487812929624	79.29175747113702	0	0	0
370	1	1	0.3659947106234629	11.768522959500155	79.19584803317333	0	0	0
371	1	1	1.2538759022181978	11.46048052304618	79.53757430807156	0	0	0
372	1	1	2.1417570938129327	11.01051566961671	79.44166487010787	0	0	0
373	1	1	3.0296382854076676	10.702473233162735	79.78339114500609	0	0	0
374	1	1	-25.03915042811477	22.43714892836236	76.78980659700038	0	0	0
375	1	1	-25.583622202200406	21.956073789748547	77.47691444750984	0	0	0
376	1	1	-26.128093976286042	22.31058907412256	78.23709166393326	0	0	0
377	1	1	-26.672565750371678	21.829513935508746	78.92419951444272	0	0	0
378	1	1	-27.217037524457314	22.18402921988276	79.68437673086613	0	0	0
379	1	1	-27.76150929854295	21.702954081268945	80.3714845813756	0	0	0
380	1	1	-28.305981072628587	22.05746936564296	81.13166179779901	0	0	0
381	1	1	-28.850452846714223	21.576394227029144	81.81876964830847	0	0	0
382	1	1	-29.39492462079986	21.930909511403158	82.57894686473189	0	0	0
383	1	1	-29.939396394885495	21.449834372789343	83.26605471524135	0	0	0
384	1	1	-30.48386816897113	21.804349657163357	84.02623193166477	0	0	0
385	1	1	-31.028339943056768	21.323274518549542	84.71333978217423	0	0	0
386	1	1	-31.572811717142404	21.677789802923556	85.47351699859765	0	0	0
387	1	1	-32.11728349122804	21.19671466430974	86.16062484910711	0	0	0
388	1	1	-32.66175526531367	21.551229948683755	86.92080206553052	0	0	0
389	1	1	-33.20622703939931	21.07015481006994	87.60790991603999	0	0	0
390	1	1	-33.750698813484945	21.424670094443954	88.3680871324634	0	0	0
391	1	1	-34.29517058757058	20.94359495583014	89.05519498297286	0	0	0
392	1	1	-34.83964236165622	21.298110240204153	89.81537219939628	0	0	0
393	1	1	-35.384114135741854	20.81703510159034	90.50248004990574	0	0	0
394	1	1	-35.92858590982749	21.171550385964352	91.26265726632916	0	0	0
395	1	1	-36.473057683913126	20.690475247350538	91.94976511683862	0	0	0
396	1	1	-37.01752945799876	21.04499053172455	92.70994233326203	0	0	0
397	1	1	-37.5620012320844	20.563915393110737	93.3970501837715	0	0	0
398	1	1	-38.106473006170035	20.91843067748475	94.15722740019491	0	0	0
399	1	1	-38.65094478025567	20.437355538870936	94.84433525070438	0	0	0
400	1	1	-39.19541655434131	20.79187082324495	95.60451246712779	0	0	0
401	1	1	-39.73988832842694	20.310795684631135	96.29162031763725	0	0	0
402	1	1	-40.28436010251258	20.665310969005148	97.05179753406067	0	0	0
403	1	1	-40.828831876598215	20.184235830391334	97.73890538457013	0	0	0
404	1	1	-41.37330365068385	20.538751114765347	98.49908260099355	0	0	0
405	1	1	-42.16132365367452	21.039140150142682	98.1404249813049	0	0	0
406	1	1	-42.94934365666519	21.651818576398966	98.08001288908234	0	0	0
407	1	1	-43.73736365965586	21.905839382966608	97.51921176148245	0	0	0
408	1	1	-44.52538366264653	22.518517809222892	97.45879966925989	0	0	0
409	1	1	-45.3134036656372	22.772538615790534	96.89799854166	0	0	0
410	1	1	-46.101423668627874	23.38521704204682	96.83758644943744	0	0	0
411	1	1	-46.889443671618544	23.63923784861446	96.27678532183755	0	0	0
412	1	1	-47.677463674609214	24.251916274870744	96.21637322961499	0	0	0
413	1	1	-48.465483677599885	24.505937081438386	95.6555721020151	0	0	0
414	1	1	-49.253503680590555	25.11861550769467	95.59516000979254	0	0	0
415	1	1	-50.041523683581225	25.372636314262312	95.03435888219265	0	0	0
416	1	1	-50.829543686571895	25.985314740518596	94.97394678997009	0	0	0
417	1	1	-51.617563689562566	26.239335547086238	94.4131456623702	0	0	0
418	1	1	-52.405583692553236	26.852013973342522	94.35273357014763	0	0	0
419	1	1	-53.193603695543906	27.106034779910164	93.79193244254775	0	0	0
420	1	1	-53.98162369853458	27.71871320616645	93.73152035032518	0	0	0
421	1	1	-54.76964370152525	27.97273401273409	93.1707192227253	0	0	0
422	1	1	-55.55766370451592	28.585412438990375	93.11030713050273	0	0	0
423	1	1	-56.34568370750659	28.839433245558016	92.54950600290285	0	0	0
424	1	1	-57.13370371049726	29.4521116718143	92.48909391068028	0	0	0
425	1	1	-57.92172371348793	29.706132478381942	91.9282927830804	0	0	0
426	1	1	-58.7097437164786	30.318810904638227	91.86788069085783	0	0	0
427	1	1	-59.49776371946927	30.57283171120587	91.30707956325794	0	0	0
428	1	1	-60.28578372245994	31.185510137462153	91.24666747103538	0	0	0
429	1	1	-61.07380372545061	31.439530944029794	90.68586634343549	0	0	0
430	1	1	-61.86182372844128	32.05220937028608	90.62545425121293	0	0	0
431	1	1	-62.64984373143195	32.30623017685372	90.06465312361304	0	0	0
432	1	1	-63.43786373442262	32.918908603110005	90.00424103139048	0	0	0
433	1	1	-64.22588373741328	33.17292940967764	89.44343990379059	0	0	0
434	1	1	-65.01390374040395	33.78560783593393	89.38302781156803	0	0	0
435	1	1	-65.80192374339461	34.03962864250157	88.82222668396814	0	0	0
436	1	1	-40.81237897267864	21.15396197935417	99.0530492946644	0	0	0
437	1	1	-40.25145429467342	21.409766869936853	99.84040395652825	0	0	0