bb300nuc5bl50bn4d30tot800

801 atoms
800 bonds
814 angles

1 atom types
1 bond types
1 angle types

-1000 1000 xlo xhi
-1000 1000 ylo yhi
-1000 1000 zlo zhi

Masses

1 1

Atoms

1	1	1	0.0	0.0	0.0	0	0	0
2	1	1	0.0	0.0	1.0	0	0	0
3	1	1	0.0	-0.49999999999999994	1.8660254037844388	0	0	0
4	1	1	0.0	0.0	2.7320508075688776	0	0	0
5	1	1	0.0	-0.49999999999999994	3.5980762113533165	0	0	0
6	1	1	0.0	0.0	4.464101615137755	0	0	0
7	1	1	0.0	-0.49999999999999994	5.330127018922194	0	0	0
8	1	1	0.0	0.0	6.196152422706632	0	0	0
9	1	1	0.0	-0.49999999999999994	7.06217782649107	0	0	0
10	1	1	0.0	0.0	7.928203230275509	0	0	0
11	1	1	0.0	-0.49999999999999994	8.794228634059948	0	0	0
12	1	1	0.0	0.0	9.660254037844387	0	0	0
13	1	1	0.0	-0.49999999999999994	10.526279441628827	0	0	0
14	1	1	0.0	0.0	11.392304845413266	0	0	0
15	1	1	0.0	-0.49999999999999994	12.258330249197705	0	0	0
16	1	1	0.0	0.0	13.124355652982144	0	0	0
17	1	1	0.0	-0.49999999999999994	13.990381056766584	0	0	0
18	1	1	0.0	0.0	14.856406460551023	0	0	0
19	1	1	0.0	-0.49999999999999994	15.722431864335462	0	0	0
20	1	1	0.0	0.0	16.5884572681199	0	0	0
21	1	1	0.0	-0.49999999999999994	17.454482671904337	0	0	0
22	1	1	0.0	0.0	18.320508075688775	0	0	0
23	1	1	0.0	-0.49999999999999994	19.186533479473212	0	0	0
24	1	1	0.0	0.0	20.05255888325765	0	0	0
25	1	1	0.0	-0.49999999999999994	20.918584287042087	0	0	0
26	1	1	0.0	0.0	21.784609690826525	0	0	0
27	1	1	0.0	-0.49999999999999994	22.650635094610962	0	0	0
28	1	1	0.0	0.0	23.5166604983954	0	0	0
29	1	1	0.0	-0.49999999999999994	24.382685902179837	0	0	0
30	1	1	0.0	0.0	25.248711305964274	0	0	0
31	1	1	0.0	-0.49999999999999994	26.114736709748712	0	0	0
32	1	1	0.0	0.0	26.98076211353315	0	0	0
33	1	1	0.0	-0.49999999999999994	27.846787517317587	0	0	0
34	1	1	0.0	0.0	28.712812921102024	0	0	0
35	1	1	0.0	-0.49999999999999994	29.578838324886462	0	0	0
36	1	1	0.0	0.0	30.4448637286709	0	0	0
37	1	1	0.0	-0.49999999999999994	31.310889132455337	0	0	0
38	1	1	0.0	0.0	32.17691453623978	0	0	0
39	1	1	0.0	-0.49999999999999994	33.04293994002422	0	0	0
40	1	1	0.0	0.0	33.90896534380866	0	0	0
41	1	1	0.0	-0.49999999999999994	34.7749907475931	0	0	0
42	1	1	0.0	0.0	35.64101615137754	0	0	0
43	1	1	0.0	-0.49999999999999994	36.50704155516198	0	0	0
44	1	1	0.0	0.0	37.373066958946424	0	0	0
45	1	1	0.0	-0.49999999999999994	38.239092362730865	0	0	0
46	1	1	0.0	0.0	39.105117766515306	0	0	0
47	1	1	0.0	-0.49999999999999994	39.97114317029975	0	0	0
48	1	1	0.0	0.0	40.83716857408419	0	0	0
49	1	1	0.0	-0.49999999999999994	41.70319397786863	0	0	0
50	1	1	0.0	0.0	42.56921938165307	0	0	0
51	1	1	0.0	-0.49999999999999994	43.43524478543751	0	0	0
52	1	1	0.2075297125750576	0.12941830143486016	44.18408657127573	0	0	0
53	1	1	0.41505942515011485	0.3000896471651905	45.14731173194436	0	0	0
54	1	1	0.6225891377251721	1.2196027787337387	45.48111859117814	0	0	0
55	1	1	0.8301188503002294	1.390274124464069	46.44434375184677	0	0	0
56	1	1	1.0376485628752865	2.3097872560326174	46.77815061108055	0	0	0
57	1	1	1.2451782754503438	2.4804586017629475	47.74137577174918	0	0	0
58	1	1	1.452707988025401	3.399971733331496	48.07518263098296	0	0	0
59	1	1	1.6602377006004583	3.570643079061826	49.03840779165159	0	0	0
60	1	1	1.8677674131755155	4.490156210630374	49.37221465088537	0	0	0
61	1	1	2.0752971257505726	4.6608275563607044	50.335439811554004	0	0	0
62	1	1	2.28282683832563	5.580340687929253	50.66924667078778	0	0	0
63	1	1	2.490356550900687	5.751012033659583	51.632471831456414	0	0	0
64	1	1	2.6978862634757443	6.670525165228131	51.96627869069019	0	0	0
65	1	1	2.9054159760508016	6.841196510958461	52.929503851358824	0	0	0
66	1	1	3.112945688625859	7.76070964252701	53.2633107105926	0	0	0
67	1	1	3.320475401200916	7.93138098825734	54.226535871261234	0	0	0
68	1	1	3.5280051137759734	8.850894119825888	54.56034273049501	0	0	0
69	1	1	3.7355348263510306	9.021565465556218	55.523567891163644	0	0	0
70	1	1	3.943064538926088	9.941078597124767	55.85737475039742	0	0	0
71	1	1	4.150594251501145	10.111749942855097	56.820599911066054	0	0	0
72	1	1	4.358123964076202	11.031263074423645	57.15440677029983	0	0	0
73	1	1	4.565653676651259	11.201934420153975	58.117631930968464	0	0	0
74	1	1	4.773183389226316	12.121447551722524	58.45143879020224	0	0	0
75	1	1	4.980713101801372	12.292118897452854	59.414663950870874	0	0	0
76	1	1	5.188242814376429	13.211632029021402	59.74847081010465	0	0	0
77	1	1	5.395772526951486	13.382303374751732	60.711695970773285	0	0	0
78	1	1	5.603302239526543	14.30181650632028	61.04550283000706	0	0	0
79	1	1	5.8108319521016	14.47248785205061	62.008727990675695	0	0	0
80	1	1	6.0183616646766565	15.392000983619159	62.34253484990947	0	0	0
81	1	1	6.225891377251713	15.562672329349489	63.305760010578105	0	0	0
82	1	1	6.43342108982677	16.482185460918036	63.63956686981188	0	0	0
83	1	1	6.640950802401827	16.652856806648366	64.60279203048051	0	0	0
84	1	1	6.848480514976884	17.572369938216912	64.93659888971429	0	0	0
85	1	1	7.0560102275519405	17.743041283947242	65.89982405038292	0	0	0
86	1	1	7.263539940126997	18.66255441551579	66.23363090961669	0	0	0
87	1	1	7.471069652702054	18.83322576124612	67.19685607028532	0	0	0
88	1	1	7.678599365277111	19.752738892814666	67.5306629295191	0	0	0
89	1	1	7.886129077852168	19.923410238544996	68.49388809018772	0	0	0
90	1	1	8.093658790427225	20.842923370113542	68.8276949494215	0	0	0
91	1	1	8.301188503002283	21.013594715843873	69.79092011009013	0	0	0
92	1	1	8.50871821557734	21.93310784741242	70.1247269693239	0	0	0
93	1	1	8.716247928152399	22.10377919314275	71.08795212999253	0	0	0
94	1	1	8.923777640727456	23.023292324711296	71.4217589892263	0	0	0
95	1	1	9.131307353302514	23.193963670441626	72.38498414989493	0	0	0
96	1	1	9.338837065877572	24.113476802010172	72.71879100912871	0	0	0
97	1	1	9.54636677845263	24.284148147740503	73.68201616979734	0	0	0
98	1	1	9.753896491027687	25.20366127930905	74.01582302903111	0	0	0
99	1	1	9.961426203602745	25.37433262503938	74.97904818969974	0	0	0
100	1	1	10.168955916177802	26.293845756607926	75.31285504893351	0	0	0
101	1	1	10.37648562875286	26.464517102338256	76.27608020960214	0	0	0
102	1	1	0.6925568747642151	-1.2207115795740566	43.40458872103428	0	0	0
103	1	1	1.3851137495284291	-1.8295380840851816	43.017684000694	0	0	0
104	1	1	2.077670624292643	-2.46902065299954	43.35149085992777	0	0	0
105	1	1	2.7702274990568565	-3.077847157510665	42.96458613958749	0	0	0
106	1	1	3.46278437382107	-3.717329726425024	43.298392998821264	0	0	0
107	1	1	4.155341248585284	-4.326156230936149	42.91148827848098	0	0	0
108	1	1	4.8478981233494975	-4.965638799850508	43.245295137714756	0	0	0
109	1	1	5.540454998113711	-5.574465304361633	42.85839041737447	0	0	0
110	1	1	6.233011872877925	-6.213947873275991	43.19219727660825	0	0	0
111	1	1	6.925568747642139	-6.822774377787116	42.805292556267965	0	0	0
112	1	1	7.618125622406352	-7.4622569467014745	43.13909941550174	0	0	0
113	1	1	8.310682497170566	-8.0710834512126	42.75219469516146	0	0	0
114	1	1	9.00323937193478	-8.710566020126958	43.08600155439523	0	0	0
115	1	1	9.695796246698995	-9.319392524638083	42.69909683405495	0	0	0
116	1	1	10.38835312146321	-9.958875093552441	43.03290369328872	0	0	0
117	1	1	11.080909996227424	-10.567701598063566	42.64599897294844	0	0	0
118	1	1	11.773466870991639	-11.207184166977925	42.979805832182215	0	0	0
119	1	1	12.466023745755853	-11.81601067148905	42.59290111184193	0	0	0
120	1	1	13.158580620520068	-12.455493240403408	42.92670797107571	0	0	0
121	1	1	13.851137495284283	-13.064319744914533	42.539803250735424	0	0	0
122	1	1	14.543694370048497	-13.703802313828891	42.8736101099692	0	0	0
123	1	1	15.236251244812712	-14.312628818340016	42.486705389628916	0	0	0
124	1	1	15.928808119576926	-14.952111387254375	42.82051224886269	0	0	0
125	1	1	16.62136499434114	-15.5609378917655	42.43360752852241	0	0	0
126	1	1	17.313921869105354	-16.200420460679858	42.76741438775618	0	0	0
127	1	1	18.006478743869568	-16.809246965190983	42.3805096674159	0	0	0
128	1	1	18.699035618633783	-17.448729534105343	42.714316526649675	0	0	0
129	1	1	19.391592493397997	-18.057556038616468	42.32741180630939	0	0	0
130	1	1	20.084149368162212	-18.69703860753083	42.66121866554317	0	0	0
131	1	1	20.776706242926426	-19.305865112041953	42.274313945202884	0	0	0
132	1	1	21.46926311769064	-19.945347680956313	42.60812080443666	0	0	0
133	1	1	22.161819992454856	-20.55417418546744	42.221216084096376	0	0	0
134	1	1	22.85437686721907	-21.1936567543818	42.55502294333015	0	0	0
135	1	1	23.546933741983285	-21.802483258892924	42.16811822298987	0	0	0
136	1	1	24.2394906167475	-22.441965827807284	42.50192508222364	0	0	0
137	1	1	24.932047491511714	-23.05079233231841	42.11502036188336	0	0	0
138	1	1	25.62460436627593	-23.69027490123277	42.448827221117135	0	0	0
139	1	1	26.317161241040143	-24.299101405743894	42.06192250077685	0	0	0
140	1	1	27.009718115804358	-24.938583974658254	42.39572936001063	0	0	0
141	1	1	27.702274990568572	-25.54741047916938	42.008824639670344	0	0	0
142	1	1	28.394831865332787	-26.18689304808374	42.34263149890412	0	0	0
143	1	1	29.087388740097	-26.795719552594864	41.955726778563836	0	0	0
144	1	1	29.779945614861216	-27.435202121509224	42.28953363779761	0	0	0
145	1	1	30.47250248962543	-28.04402862602035	41.90262891745733	0	0	0
146	1	1	31.165059364389645	-28.68351119493471	42.2364357766911	0	0	0
147	1	1	31.85761623915386	-29.292337699445834	41.84953105635082	0	0	0
148	1	1	32.55017311391807	-29.931820268360195	42.183337915584595	0	0	0
149	1	1	33.242729988682285	-30.54064677287132	41.79643319524431	0	0	0
150	1	1	33.9352868634465	-31.18012934178568	42.13024005447809	0	0	0
151	1	1	34.627843738210714	-31.788955846296805	41.743335334137804	0	0	0
152	1	1	-0.9000865873392776	-0.9094170107114607	43.584314724164365	0	0	0
153	1	1	-1.8001731746785539	-1.3385175120924977	43.50870457268668	0	0	0
154	1	1	-2.70025976201783	-1.6185480747466812	43.84251143192046	0	0	0
155	1	1	-3.6003463493571064	-2.047648576127718	43.766901280442774	0	0	0
156	1	1	-4.500432936696383	-2.3276791387819014	44.10070813967655	0	0	0
157	1	1	-5.4005195240356585	-2.756779640162938	44.025097988198866	0	0	0
158	1	1	-6.300606111374934	-3.0368102028171213	44.35890484743264	0	0	0
159	1	1	-7.20069269871421	-3.465910704198158	44.28329469595496	0	0	0
160	1	1	-8.100779286053486	-3.7459412668523413	44.61710155518873	0	0	0
161	1	1	-9.000865873392762	-4.1750417682333785	44.54149140371105	0	0	0
162	1	1	-9.900952460732038	-4.455072330887562	44.875298262944824	0	0	0
163	1	1	-10.801039048071313	-4.884172832268599	44.79968811146714	0	0	0
164	1	1	-11.70112563541059	-5.164203394922783	45.133494970700916	0	0	0
165	1	1	-12.601212222749865	-5.59330389630382	45.05788481922323	0	0	0
166	1	1	-13.501298810089141	-5.873334458958004	45.39169167845701	0	0	0
167	1	1	-14.401385397428417	-6.302434960339041	45.316081526979325	0	0	0
168	1	1	-15.301471984767693	-6.582465522993225	45.6498883862131	0	0	0
169	1	1	-16.20155857210697	-7.011566024374262	45.57427823473542	0	0	0
170	1	1	-17.101645159446246	-7.291596587028446	45.90808509396919	0	0	0
171	1	1	-18.001731746785524	-7.720697088409483	45.83247494249151	0	0	0
172	1	1	-18.9018183341248	-8.000727651063666	46.16628180172528	0	0	0
173	1	1	-19.80190492146408	-8.429828152444703	46.0906716502476	0	0	0
174	1	1	-20.701991508803356	-8.709858715098886	46.424478509481375	0	0	0
175	1	1	-21.602078096142634	-9.138959216479922	46.34886835800369	0	0	0
176	1	1	-22.50216468348191	-9.418989779134105	46.68267521723747	0	0	0
177	1	1	-23.40225127082119	-9.848090280515141	46.607065065759784	0	0	0
178	1	1	-24.302337858160467	-10.128120843169324	46.94087192499356	0	0	0
179	1	1	-25.202424445499744	-10.55722134455036	46.865261773515876	0	0	0
180	1	1	-26.102511032839022	-10.837251907204543	47.19906863274965	0	0	0
181	1	1	-27.0025976201783	-11.266352408585579	47.12345848127197	0	0	0
182	1	1	-27.902684207517577	-11.546382971239762	47.45726534050574	0	0	0
183	1	1	-28.802770794856855	-11.975483472620798	47.38165518902806	0	0	0
184	1	1	-29.702857382196132	-12.255514035274981	47.715462048261834	0	0	0
185	1	1	-30.60294396953541	-12.684614536656017	47.63985189678415	0	0	0
186	1	1	-31.503030556874688	-12.9646450993102	47.973658756017926	0	0	0
187	1	1	-32.403117144213965	-13.393745600691236	47.89804860454024	0	0	0
188	1	1	-33.30320373155324	-13.67377616334542	48.23185546377402	0	0	0
189	1	1	-34.20329031889251	-14.102876664726455	48.156245312296335	0	0	0
190	1	1	-35.10337690623179	-14.382907227380638	48.49005217153011	0	0	0
191	1	1	-36.00346349357106	-14.812007728761674	48.41444202005243	0	0	0
192	1	1	-36.903550080910335	-15.092038291415857	48.7482488792862	0	0	0
193	1	1	-37.80363666824961	-15.521138792796894	48.67263872780852	0	0	0
194	1	1	-38.70372325558888	-15.801169355451076	49.00644558704229	0	0	0
195	1	1	-39.60380984292816	-16.230269856832113	48.93083543556461	0	0	0
196	1	1	-40.50389643026743	-16.510300419486295	49.264642294798385	0	0	0
197	1	1	-41.403983017606706	-16.93940092086733	49.1890321433207	0	0	0
198	1	1	-42.30406960494598	-17.219431483521515	49.52283900255448	0	0	0
199	1	1	-43.204156192285254	-17.64853198490255	49.447228851076794	0	0	0
200	1	1	-44.10424277962453	-17.928562547556734	49.78103571031057	0	0	0
201	1	1	-45.0043293669638	-18.35766304893777	49.705425558832886	0	0	0
202	1	1	-45.55301813790168	-18.12620371123306	50.50877306000282	0	0	0
203	1	1	-46.10170690883957	-18.327427795422626	51.32022207293508	0	0	0
204	1	1	-46.65039567977745	-17.72530437844226	51.90021174816264	0	0	0
205	1	1	-47.19908445071534	-17.926528462631826	52.711660761094905	0	0	0
206	1	1	-47.747773221653226	-17.32440504565146	53.29165043632246	0	0	0
207	1	1	-48.29646199259111	-17.525629129841025	54.10309944925473	0	0	0
208	1	1	-48.845150763529	-16.92350571286066	54.68308912448229	0	0	0
209	1	1	-49.393839534466885	-17.124729797050225	55.49453813741455	0	0	0
210	1	1	-49.94252830540477	-16.52260638006986	56.07452781264211	0	0	0
211	1	1	-50.49121707634266	-16.723830464259425	56.885976825574375	0	0	0
212	1	1	-51.039905847280544	-16.12170704727906	57.46596650080193	0	0	0
213	1	1	-51.58859461821843	-16.322931131468625	58.2774155137342	0	0	0
214	1	1	-52.137283389156316	-15.72080771448826	58.857405188961756	0	0	0
215	1	1	-52.6859721600942	-15.922031798677827	59.66885420189402	0	0	0
216	1	1	-53.23466093103209	-15.319908381697461	60.24884387712158	0	0	0
217	1	1	-53.783349701969975	-15.521132465887028	61.060292890053844	0	0	0
218	1	1	-54.33203847290786	-14.919009048906663	61.6402825652814	0	0	0
219	1	1	-54.88072724384575	-15.12023313309623	62.45173157821367	0	0	0
220	1	1	-55.429416014783634	-14.518109716115864	63.031721253441226	0	0	0
221	1	1	-55.97810478572152	-14.719333800305431	63.84317026637349	0	0	0
222	1	1	-56.526793556659406	-14.117210383325066	64.42315994160104	0	0	0
223	1	1	-57.07548232759729	-14.318434467514633	65.2346089545333	0	0	0
224	1	1	-57.62417109853518	-13.716311050534268	65.81459862976085	0	0	0
225	1	1	-58.172859869473065	-13.917535134723835	66.62604764269311	0	0	0
226	1	1	-58.72154864041095	-13.31541171774347	67.20603731792066	0	0	0
227	1	1	-59.27023741134884	-13.516635801933036	68.01748633085292	0	0	0
228	1	1	-59.818926182286724	-12.91451238495267	68.59747600608047	0	0	0
229	1	1	-60.36761495322461	-13.115736469142238	69.40892501901273	0	0	0
230	1	1	-60.916303724162496	-12.513613052161872	69.98891469424028	0	0	0
231	1	1	-61.46499249510038	-12.71483713635144	70.80036370717254	0	0	0
232	1	1	-62.01368126603827	-12.112713719371074	71.38035338240009	0	0	0
233	1	1	-62.562370036976155	-12.313937803560641	72.19180239533235	0	0	0
234	1	1	-63.11105880791404	-11.711814386580276	72.7717920705599	0	0	0
235	1	1	-63.65974757885193	-11.913038470769843	73.58324108349215	0	0	0
236	1	1	-64.2084363497898	-11.310915053789477	74.1632307587197	0	0	0
237	1	1	-64.7571251207277	-11.512139137979045	74.97467977165196	0	0	0
238	1	1	-65.30581389166558	-10.910015720998679	75.55466944687952	0	0	0
239	1	1	-65.85450266260347	-11.111239805188246	76.36611845981177	0	0	0
240	1	1	-66.40319143354135	-10.50911638820788	76.94610813503932	0	0	0
241	1	1	-66.95188020447924	-10.710340472397448	77.75755714797158	0	0	0
242	1	1	-67.50056897541712	-10.108217055417082	78.33754682319913	0	0	0
243	1	1	-68.04925774635501	-10.30944113960665	79.14899583613139	0	0	0
244	1	1	-68.5979465172929	-9.707317722626284	79.72898551135894	0	0	0
245	1	1	-69.14663528823078	-9.908541806815851	80.5404345242912	0	0	0
246	1	1	-69.69532405916867	-9.306418389835486	81.12042419951875	0	0	0
247	1	1	-70.24401283010656	-9.507642474025053	81.93187321245101	0	0	0
248	1	1	-70.79270160104444	-8.905519057044687	82.51186288767856	0	0	0
249	1	1	-71.34139037198233	-9.106743141234254	83.32331190061082	0	0	0
250	1	1	-71.89007914292021	-8.504619724253889	83.90330157583837	0	0	0
251	1	1	-72.4387679138581	-8.705843808443456	84.71475058877063	0	0	0
252	1	1	-44.897290106906745	-19.35038371583336	49.6502143794866	0	0	0
253	1	1	-44.79025084684969	-20.182499442553627	49.106039762152015	0	0	0
254	1	1	-44.68321158679263	-21.069826348620182	49.554585811713025	0	0	0
255	1	1	-44.57617232673557	-21.90194207534045	49.01041119437844	0	0	0
256	1	1	-44.469133066678516	-22.789268981407005	49.45895724393945	0	0	0
257	1	1	-44.36209380662146	-23.621384708127273	48.91478262660487	0	0	0
258	1	1	-44.2550545465644	-24.508711614193828	49.36332867616588	0	0	0
259	1	1	-44.148015286507345	-25.340827340914096	48.819154058831295	0	0	0
260	1	1	-44.04097602645029	-26.22815424698065	49.267700108392305	0	0	0
261	1	1	-43.93393676639323	-27.06026997370092	48.72352549105772	0	0	0
262	1	1	-43.826897506336174	-27.947596879767474	49.17207154061873	0	0	0
263	1	1	-43.71985824627912	-28.77971260648774	48.62789692328415	0	0	0
264	1	1	-43.61281898622206	-29.667039512554297	49.07644297284516	0	0	0
265	1	1	-43.505779726165	-30.499155239274565	48.532268355510574	0	0	0
266	1	1	-43.398740466107945	-31.38648214534112	48.980814405071584	0	0	0
267	1	1	-43.29170120605089	-32.21859787206139	48.436639787737	0	0	0
268	1	1	-43.18466194599383	-33.10592477812794	48.88518583729801	0	0	0
269	1	1	-43.077622685936774	-33.93804050484821	48.34101121996343	0	0	0
270	1	1	-42.97058342587972	-34.825367410914765	48.78955726952444	0	0	0
271	1	1	-42.86354416582266	-35.65748313763503	48.24538265218985	0	0	0
272	1	1	-42.7565049057656	-36.54481004370159	48.69392870175086	0	0	0
273	1	1	-42.649465645708545	-37.376925770421856	48.14975408441628	0	0	0
274	1	1	-42.54242638565149	-38.26425267648841	48.59830013397729	0	0	0
275	1	1	-42.43538712559443	-39.09636840320868	48.054125516642706	0	0	0
276	1	1	-42.328347865537374	-39.983695309275234	48.502671566203716	0	0	0
277	1	1	-42.22130860548032	-40.8158110359955	47.95849694886913	0	0	0
278	1	1	-42.11426934542326	-41.70313794206206	48.40704299843014	0	0	0
279	1	1	-42.0072300853662	-42.535253668782325	47.86286838109556	0	0	0
280	1	1	-41.900190825309146	-43.42258057484888	48.31141443065657	0	0	0
281	1	1	-41.79315156525209	-44.25469630156915	47.767239813321986	0	0	0
282	1	1	-41.68611230519503	-45.1420232076357	48.215785862882996	0	0	0
283	1	1	-41.579073045137974	-45.97413893435597	47.67161124554841	0	0	0
284	1	1	-41.47203378508092	-46.861465840422525	48.12015729510942	0	0	0
285	1	1	-41.36499452502386	-47.69358156714279	47.57598267777484	0	0	0
286	1	1	-41.2579552649668	-48.58090847320935	48.02452872733585	0	0	0
287	1	1	-41.150916004909746	-49.413024199929616	47.480354110001265	0	0	0
288	1	1	-41.04387674485269	-50.30035110599617	47.928900159562275	0	0	0
289	1	1	-40.93683748479563	-51.13246683271644	47.38472554222769	0	0	0
290	1	1	-40.829798224738575	-52.019793738782994	47.8332715917887	0	0	0
291	1	1	-40.72275896468152	-52.85190946550326	47.28909697445412	0	0	0
292	1	1	-40.61571970462446	-53.73923637156982	47.73764302401513	0	0	0
293	1	1	-40.5086804445674	-54.571352098290085	47.193468406680545	0	0	0
294	1	1	-40.401641184510346	-55.45867900435664	47.642014456241554	0	0	0
295	1	1	-40.29460192445329	-56.29079473107691	47.09783983890697	0	0	0
296	1	1	-40.18756266439623	-57.17812163714346	47.54638588846798	0	0	0
297	1	1	-40.080523404339175	-58.01023736386373	47.0022112711334	0	0	0
298	1	1	-39.97348414428212	-58.897564269930285	47.45075732069441	0	0	0
299	1	1	-39.86644488422506	-59.72967999665055	46.906582703359824	0	0	0
300	1	1	-39.759405624168004	-60.61700690271711	47.355128752920834	0	0	0
301	1	1	-39.65236636411095	-61.449122629437376	46.81095413558625	0	0	0
302	1	1	-45.46404508635747	-18.026111791731815	48.881571675436376	0	0	0
303	1	1	-45.923760805751144	-17.327053038636535	48.33386891201152	0	0	0
304	1	1	-46.383476525144815	-17.451848168937765	47.4546148913807	0	0	0
305	1	1	-46.843192244538486	-16.752789415842486	46.90691212795584	0	0	0
306	1	1	-47.30290796393216	-16.877584546143716	46.027658107325024	0	0	0
307	1	1	-47.76262368332583	-16.178525793048436	45.479955343900166	0	0	0
308	1	1	-48.2223394027195	-16.303320923349666	44.60070132326935	0	0	0
309	1	1	-48.68205512211317	-15.604262170254387	44.05299855984449	0	0	0
310	1	1	-49.14177084150684	-15.729057300555615	43.17374453921367	0	0	0
311	1	1	-49.60148656090051	-15.029998547460336	42.62604177578881	0	0	0
312	1	1	-50.06120228029418	-15.154793677761564	41.746787755157996	0	0	0
313	1	1	-50.52091799968785	-14.455734924666285	41.19908499173314	0	0	0
314	1	1	-50.980633719081524	-14.580530054967513	40.31983097110232	0	0	0
315	1	1	-51.440349438475195	-13.881471301872233	39.77212820767746	0	0	0
316	1	1	-51.900065157868866	-14.006266432173462	38.892874187046644	0	0	0
317	1	1	-52.35978087726254	-13.307207679078182	38.345171423621785	0	0	0
318	1	1	-52.81949659665621	-13.43200280937941	37.46591740299097	0	0	0
319	1	1	-53.27921231604988	-12.732944056284131	36.91821463956611	0	0	0
320	1	1	-53.73892803544355	-12.85773918658536	36.03896061893529	0	0	0
321	1	1	-54.19864375483722	-12.15868043349008	35.49125785551043	0	0	0
322	1	1	-54.65835947423089	-12.283475563791308	34.612003834879616	0	0	0
323	1	1	-55.11807519362456	-11.584416810696029	34.06430107145476	0	0	0
324	1	1	-55.577790913018234	-11.709211940997257	33.18504705082394	0	0	0
325	1	1	-56.037506632411905	-11.010153187901977	32.63734428739908	0	0	0
326	1	1	-56.497222351805576	-11.134948318203206	31.758090266768264	0	0	0
327	1	1	-56.95693807119925	-10.435889565107926	31.2103875033434	0	0	0
328	1	1	-57.41665379059292	-10.560684695409154	30.331133482712584	0	0	0
329	1	1	-57.87636950998659	-9.861625942313875	29.783430719287722	0	0	0
330	1	1	-58.33608522938026	-9.986421072615103	28.904176698656904	0	0	0
331	1	1	-58.79580094877393	-9.287362319519824	28.356473935232042	0	0	0
332	1	1	-59.2555166681676	-9.412157449821052	27.477219914601225	0	0	0
333	1	1	-59.71523238756127	-8.713098696725773	26.929517151176363	0	0	0
334	1	1	-60.17494810695494	-8.837893827027	26.050263130545545	0	0	0
335	1	1	-60.634663826348614	-8.138835073931721	25.502560367120683	0	0	0
336	1	1	-61.094379545742285	-8.26363020423295	24.623306346489866	0	0	0
337	1	1	-61.554095265135956	-7.56457145113767	24.075603583065003	0	0	0
338	1	1	-62.01381098452963	-7.689366581438899	23.196349562434186	0	0	0
339	1	1	-62.4735267039233	-6.99030782834362	22.648646799009324	0	0	0
340	1	1	-62.93324242331697	-7.115102958644849	21.769392778378506	0	0	0
341	1	1	-63.39295814271064	-6.41604420554957	21.221690014953644	0	0	0
342	1	1	-63.85267386210431	-6.540839335850799	20.342435994322827	0	0	0
343	1	1	-64.31238958149798	-5.841780582755519	19.794733230897965	0	0	0
344	1	1	-64.77210530089165	-5.9665757130567485	18.915479210267147	0	0	0
345	1	1	-65.23182102028532	-5.267516959961469	18.367776446842285	0	0	0
346	1	1	-65.691536739679	-5.392312090262698	17.488522426211468	0	0	0
347	1	1	-66.15125245907267	-4.693253337167419	16.940819662786605	0	0	0
348	1	1	-66.61096817846634	-4.818048467468648	16.061565642155788	0	0	0
349	1	1	-67.07068389786001	-4.1189897143733685	15.513862878730926	0	0	0
350	1	1	-67.53039961725368	-4.243784844674598	14.634608858100108	0	0	0
351	1	1	-67.99011533664735	-3.544726091579318	14.086906094675246	0	0	0
352	1	1	-67.31467167055912	-2.8923005559123776	13.743224884320368	0	0	0
353	1	1	-66.6392280044709	-2.1554428627696964	13.77180099318313	0	0	0
354	1	1	-65.96378433838267	-1.762266379981894	13.14795156637895	0	0	0
355	1	1	-65.28834067229444	-1.0254086868392132	13.176527675241712	0	0	0
356	1	1	-64.61289700620621	-0.6322322040514108	12.552678248437532	0	0	0
357	1	1	-63.937453340117976	0.10462548909127012	12.581254357300294	0	0	0
358	1	1	-63.26200967402974	0.4978019718790725	11.957404930496114	0	0	0
359	1	1	-62.58656600794151	1.2346596650217534	11.985981039358876	0	0	0
360	1	1	-61.91112234185327	1.6278361478095558	11.362131612554697	0	0	0
361	1	1	-61.23567867576504	2.3646938409522367	11.390707721417458	0	0	0
362	1	1	-60.5602350096768	2.757870323740039	10.766858294613279	0	0	0
363	1	1	-59.88479134358857	3.4947280168827195	10.79543440347604	0	0	0
364	1	1	-59.20934767750033	3.8879044996705217	10.171584976671861	0	0	0
365	1	1	-58.5339040114121	4.624762192813202	10.200161085534623	0	0	0
366	1	1	-57.85846034532386	5.0179386756010045	9.576311658730443	0	0	0
367	1	1	-57.18301667923563	5.754796368743685	9.604887767593205	0	0	0
368	1	1	-56.50757301314739	6.147972851531487	8.981038340789025	0	0	0
369	1	1	-55.83212934705916	6.884830544674168	9.009614449651787	0	0	0
370	1	1	-55.156685680970924	7.27800702746197	8.385765022847607	0	0	0
371	1	1	-54.48124201488269	8.01486472060465	8.41434113171037	0	0	0
372	1	1	-53.805798348794454	8.408041203392454	7.79049170490619	0	0	0
373	1	1	-53.13035468270622	9.144898896535135	7.819067813768952	0	0	0
374	1	1	-52.454911016617984	9.538075379322938	7.195218386964773	0	0	0
375	1	1	-51.77946735052975	10.27493307246562	7.223794495827535	0	0	0
376	1	1	-51.104023684441515	10.668109555253423	6.599945069023356	0	0	0
377	1	1	-50.42858001835328	11.404967248396105	6.628521177886118	0	0	0
378	1	1	-49.753136352265045	11.798143731183908	6.004671751081939	0	0	0
379	1	1	-49.07769268617681	12.53500142432659	6.0332478599447015	0	0	0
380	1	1	-48.402249020088576	12.928177907114392	5.409398433140522	0	0	0
381	1	1	-47.72680535400034	13.665035600257074	5.437974542003285	0	0	0
382	1	1	-47.051361687912106	14.058212083044877	4.814125115199105	0	0	0
383	1	1	-46.37591802182387	14.795069776187558	4.842701224061868	0	0	0
384	1	1	-45.700474355735636	15.188246258975362	4.218851797257688	0	0	0
385	1	1	-45.0250306896474	15.925103952118043	4.247427906120451	0	0	0
386	1	1	-44.34958702355917	16.318280434905844	3.6235784793162717	0	0	0
387	1	1	-43.67414335747093	17.055138128048526	3.652154588179034	0	0	0
388	1	1	-42.9986996913827	17.448314610836327	3.028305161374855	0	0	0
389	1	1	-42.32325602529446	18.18517230397901	3.056881270237617	0	0	0
390	1	1	-41.64781235920623	18.57834878676681	2.433031843433438	0	0	0
391	1	1	-40.97236869311799	19.31520647990949	2.4616079522962	0	0	0
392	1	1	-40.29692502702976	19.708382962697293	1.837758525492021	0	0	0
393	1	1	-39.62148136094152	20.445240655839974	1.8663346343547833	0	0	0
394	1	1	-38.94603769485329	20.838417138627776	1.242485207550604	0	0	0
395	1	1	-38.27059402876505	21.575274831770457	1.2710613164133664	0	0	0
396	1	1	-37.59515036267682	21.96845131455826	0.6472118896091873	0	0	0
397	1	1	-36.919706696588584	22.70530900770094	0.6757879984719495	0	0	0
398	1	1	-36.24426303050035	23.09848549048874	0.051938571667770383	0	0	0
399	1	1	-35.568819364412114	23.835343183631423	0.0805146805305326	0	0	0
400	1	1	-34.89337569832388	24.228519666419224	-0.5433347462736465	0	0	0
401	1	1	-34.217932032235645	24.965377359561906	-0.5147586374108843	0	0	0
402	1	1	-68.65941746910357	-3.0637052146087296	14.653168905928103	0	0	0
403	1	1	-69.3287196015598	-2.930260321027959	15.384077324176765	0	0	0
404	1	1	-69.99802173401602	-2.230552616194331	15.633964865454837	0	0	0
405	1	1	-70.66732386647224	-2.0971077226135604	16.3648732837035	0	0	0
406	1	1	-71.33662599892847	-1.3974000177799324	16.614760824981573	0	0	0
407	1	1	-72.00592813138469	-1.2639551241991618	17.345669243230233	0	0	0
408	1	1	-72.67523026384092	-0.5642474193655338	17.595556784508307	0	0	0
409	1	1	-73.34453239629714	-0.4308025257847631	18.32646520275697	0	0	0
410	1	1	-74.01383452875336	0.2689051790488649	18.576352744035045	0	0	0
411	1	1	-74.68313666120959	0.4023500726296356	19.30726116228371	0	0	0
412	1	1	-75.35243879366581	1.1020577774632636	19.557148703561783	0	0	0
413	1	1	-76.02174092612204	1.2355026710440344	20.288057121810446	0	0	0
414	1	1	-76.69104305857826	1.9352103758776624	20.53794466308852	0	0	0
415	1	1	-77.36034519103448	2.068655269458433	21.268853081337184	0	0	0
416	1	1	-78.0296473234907	2.768362974292061	21.518740622615258	0	0	0
417	1	1	-78.69894945594693	2.9018078678728316	22.249649040863922	0	0	0
418	1	1	-79.36825158840315	3.6015155727064596	22.499536582141996	0	0	0
419	1	1	-80.03755372085938	3.73496046628723	23.23044500039066	0	0	0
420	1	1	-80.7068558533156	4.434668171120858	23.480332541668734	0	0	0
421	1	1	-81.37615798577183	4.568113064701629	24.211240959917397	0	0	0
422	1	1	-82.04546011822805	5.267820769535257	24.46112850119547	0	0	0
423	1	1	-82.71476225068427	5.401265663116028	25.192036919444135	0	0	0
424	1	1	-83.3840643831405	6.100973367949656	25.44192446072221	0	0	0
425	1	1	-84.05336651559672	6.234418261530427	26.172832878970873	0	0	0
426	1	1	-84.72266864805295	6.934125966364055	26.422720420248947	0	0	0
427	1	1	-85.39197078050917	7.067570859944826	27.15362883849761	0	0	0
428	1	1	-86.06127291296539	7.767278564778454	27.403516379775684	0	0	0
429	1	1	-86.73057504542162	7.900723458359225	28.134424798024348	0	0	0
430	1	1	-87.39987717787784	8.600431163192853	28.384312339302422	0	0	0
431	1	1	-88.06917931033406	8.733876056773624	29.115220757551086	0	0	0
432	1	1	-88.73848144279029	9.433583761607252	29.36510829882916	0	0	0
433	1	1	-89.40778357524651	9.567028655188023	30.096016717077823	0	0	0
434	1	1	-90.07708570770274	10.266736360021651	30.345904258355898	0	0	0
435	1	1	-90.74638784015896	10.400181253602423	31.07681267660456	0	0	0
436	1	1	-91.41568997261518	11.09988895843605	31.326700217882635	0	0	0
437	1	1	-92.08499210507141	11.233333852016822	32.0576086361313	0	0	0
438	1	1	-92.75429423752763	11.93304155685045	32.30749617740937	0	0	0
439	1	1	-93.42359636998385	12.06648645043122	33.03840459565803	0	0	0
440	1	1	-94.09289850244008	12.766194155264849	33.2882921369361	0	0	0
441	1	1	-94.7622006348963	12.89963904884562	34.01920055518476	0	0	0