bb375nuc5bl62bn4d30tot1000

993 atoms
992 bonds
1006 angles

1 atom types
1 bond types
1 angle types

-1000 1000 xlo xhi
-1000 1000 ylo yhi
-1000 1000 zlo zhi

Masses

1 1

Atoms

1	1	1	0.0	0.0	0.0	0	0	0
2	1	1	0.0	0.0	1.0	0	0	0
3	1	1	0.0	-0.49999999999999994	1.8660254037844388	0	0	0
4	1	1	0.0	0.0	2.7320508075688776	0	0	0
5	1	1	0.0	-0.49999999999999994	3.5980762113533165	0	0	0
6	1	1	0.0	0.0	4.464101615137755	0	0	0
7	1	1	0.0	-0.49999999999999994	5.330127018922194	0	0	0
8	1	1	0.0	0.0	6.196152422706632	0	0	0
9	1	1	0.0	-0.49999999999999994	7.06217782649107	0	0	0
10	1	1	0.0	0.0	7.928203230275509	0	0	0
11	1	1	0.0	-0.49999999999999994	8.794228634059948	0	0	0
12	1	1	0.0	0.0	9.660254037844387	0	0	0
13	1	1	0.0	-0.49999999999999994	10.526279441628827	0	0	0
14	1	1	0.0	0.0	11.392304845413266	0	0	0
15	1	1	0.0	-0.49999999999999994	12.258330249197705	0	0	0
16	1	1	0.0	0.0	13.124355652982144	0	0	0
17	1	1	0.0	-0.49999999999999994	13.990381056766584	0	0	0
18	1	1	0.0	0.0	14.856406460551023	0	0	0
19	1	1	0.0	-0.49999999999999994	15.722431864335462	0	0	0
20	1	1	0.0	0.0	16.5884572681199	0	0	0
21	1	1	0.0	-0.49999999999999994	17.454482671904337	0	0	0
22	1	1	0.0	0.0	18.320508075688775	0	0	0
23	1	1	0.0	-0.49999999999999994	19.186533479473212	0	0	0
24	1	1	0.0	0.0	20.05255888325765	0	0	0
25	1	1	0.0	-0.49999999999999994	20.918584287042087	0	0	0
26	1	1	0.0	0.0	21.784609690826525	0	0	0
27	1	1	0.0	-0.49999999999999994	22.650635094610962	0	0	0
28	1	1	0.0	0.0	23.5166604983954	0	0	0
29	1	1	0.0	-0.49999999999999994	24.382685902179837	0	0	0
30	1	1	0.0	0.0	25.248711305964274	0	0	0
31	1	1	0.0	-0.49999999999999994	26.114736709748712	0	0	0
32	1	1	0.0	0.0	26.98076211353315	0	0	0
33	1	1	0.0	-0.49999999999999994	27.846787517317587	0	0	0
34	1	1	0.0	0.0	28.712812921102024	0	0	0
35	1	1	0.0	-0.49999999999999994	29.578838324886462	0	0	0
36	1	1	0.0	0.0	30.4448637286709	0	0	0
37	1	1	0.0	-0.49999999999999994	31.310889132455337	0	0	0
38	1	1	0.0	0.0	32.17691453623978	0	0	0
39	1	1	0.0	-0.49999999999999994	33.04293994002422	0	0	0
40	1	1	0.0	0.0	33.90896534380866	0	0	0
41	1	1	0.0	-0.49999999999999994	34.7749907475931	0	0	0
42	1	1	0.0	0.0	35.64101615137754	0	0	0
43	1	1	0.0	-0.49999999999999994	36.50704155516198	0	0	0
44	1	1	0.0	0.0	37.373066958946424	0	0	0
45	1	1	0.0	-0.49999999999999994	38.239092362730865	0	0	0
46	1	1	0.0	0.0	39.105117766515306	0	0	0
47	1	1	0.0	-0.49999999999999994	39.97114317029975	0	0	0
48	1	1	0.0	0.0	40.83716857408419	0	0	0
49	1	1	0.0	-0.49999999999999994	41.70319397786863	0	0	0
50	1	1	0.0	0.0	42.56921938165307	0	0	0
51	1	1	0.0	-0.49999999999999994	43.43524478543751	0	0	0
52	1	1	0.0	0.0	44.30127018922195	0	0	0
53	1	1	0.0	-0.49999999999999994	45.16729559300639	0	0	0
54	1	1	0.0	0.0	46.033320996790835	0	0	0
55	1	1	0.0	-0.49999999999999994	46.899346400575276	0	0	0
56	1	1	0.0	0.0	47.76537180435972	0	0	0
57	1	1	0.0	-0.49999999999999994	48.63139720814416	0	0	0
58	1	1	0.0	0.0	49.4974226119286	0	0	0
59	1	1	0.0	-0.49999999999999994	50.36344801571304	0	0	0
60	1	1	0.0	0.0	51.22947341949748	0	0	0
61	1	1	0.0	-0.49999999999999994	52.09549882328192	0	0	0
62	1	1	0.0	0.0	52.96152422706636	0	0	0
63	1	1	0.0	-0.49999999999999994	53.827549630850804	0	0	0
64	1	1	-0.6667528192199499	-1.2439738274827385	53.78346310135554	0	0	0
65	1	1	-1.3335056384398984	-1.8662307970858967	53.37329613310658	0	0	0
66	1	1	-2.000258457659847	-2.532574296184322	53.70710299234035	0	0	0
67	1	1	-2.6670112768797956	-3.15483126578748	53.296936024091394	0	0	0
68	1	1	-3.333764096099744	-3.821174764885906	53.63074288332517	0	0	0
69	1	1	-4.000516915319693	-4.443431734489064	53.22057591507621	0	0	0
70	1	1	-4.667269734539642	-5.109775233587489	53.554382774309985	0	0	0
71	1	1	-5.33402255375959	-5.732032203190647	53.14421580606103	0	0	0
72	1	1	-6.000775372979539	-6.398375702289072	53.4780226652948	0	0	0
73	1	1	-6.667528192199487	-7.02063267189223	53.06785569704584	0	0	0
74	1	1	-7.334281011419436	-7.686976170990655	53.40166255627962	0	0	0
75	1	1	-8.001033830639384	-8.309233140593813	52.99149558803066	0	0	0
76	1	1	-8.667786649859334	-8.975576639692239	53.325302447264434	0	0	0
77	1	1	-9.334539469079283	-9.597833609295398	52.915135479015476	0	0	0
78	1	1	-10.001292288299233	-10.264177108393824	53.24894233824925	0	0	0
79	1	1	-10.668045107519182	-10.886434077996983	52.83877537000029	0	0	0
80	1	1	-11.334797926739132	-11.552777577095409	53.17258222923407	0	0	0
81	1	1	-12.001550745959081	-12.175034546698567	52.76241526098511	0	0	0
82	1	1	-12.66830356517903	-12.841378045796993	53.09622212021888	0	0	0
83	1	1	-13.33505638439898	-13.463635015400152	52.686055151969924	0	0	0
84	1	1	-14.00180920361893	-14.129978514498578	53.0198620112037	0	0	0
85	1	1	-14.668562022838879	-14.752235484101737	52.60969504295474	0	0	0
86	1	1	-15.335314842058828	-15.418578983200163	52.943501902188515	0	0	0
87	1	1	-16.002067661278776	-16.04083595280332	52.53333493393956	0	0	0
88	1	1	-16.668820480498724	-16.707179451901744	52.86714179317333	0	0	0
89	1	1	-17.33557329971867	-17.3294364215049	52.45697482492437	0	0	0
90	1	1	-18.00232611893862	-17.995779920603326	52.79078168415815	0	0	0
91	1	1	-18.669078938158567	-18.618036890206483	52.38061471590919	0	0	0
92	1	1	-19.335831757378514	-19.284380389304907	52.714421575142964	0	0	0
93	1	1	-20.002584576598462	-19.906637358908064	52.304254606894006	0	0	0
94	1	1	-20.66933739581841	-20.57298085800649	52.63806146612778	0	0	0
95	1	1	-21.336090215038357	-21.195237827609645	52.22789449787882	0	0	0
96	1	1	-22.002843034258305	-21.86158132670807	52.5617013571126	0	0	0
97	1	1	-22.669595853478253	-22.483838296311227	52.15153438886364	0	0	0
98	1	1	-23.3363486726982	-23.15018179540965	52.48534124809741	0	0	0
99	1	1	-24.003101491918148	-23.772438765012808	52.075174279848454	0	0	0
100	1	1	-24.669854311138096	-24.438782264111232	52.40898113908223	0	0	0
101	1	1	-25.336607130358043	-25.06103923371439	51.99881417083327	0	0	0
102	1	1	-26.00335994957799	-25.727382732812814	52.332621030067045	0	0	0
103	1	1	-26.67011276879794	-26.34963970241597	51.92245406181809	0	0	0
104	1	1	-27.336865588017886	-27.015983201514395	52.25626092105186	0	0	0
105	1	1	-28.003618407237834	-27.638240171117552	51.8460939528029	0	0	0
106	1	1	-28.67037122645778	-28.304583670215976	52.17990081203668	0	0	0
107	1	1	-29.33712404567773	-28.926840639819133	51.76973384378772	0	0	0
108	1	1	-30.003876864897677	-29.593184138917557	52.103540703021494	0	0	0
109	1	1	-30.670629684117625	-30.215441108520714	51.693373734772535	0	0	0
110	1	1	-31.337382503337572	-30.88178460761914	52.02718059400631	0	0	0
111	1	1	-32.004135322557524	-31.504041577222296	51.61701362575735	0	0	0
112	1	1	-32.670888141777475	-32.17038507632072	51.95082048499113	0	0	0
113	1	1	-33.337640960997426	-32.79264204592388	51.54065351674217	0	0	0
114	1	1	-34.00439378021738	-33.4589855450223	51.87446037597594	0	0	0
115	1	1	-34.67114659943733	-34.08124251462546	51.464293407726984	0	0	0
116	1	1	-35.33789941865728	-34.74758601372388	51.79810026696076	0	0	0
117	1	1	-36.00465223787723	-35.36984298332704	51.3879332987118	0	0	0
118	1	1	-36.67140505709718	-36.036186482425464	51.721740157945575	0	0	0
119	1	1	-37.33815787631713	-36.65844345202862	51.31157318969662	0	0	0
120	1	1	-38.004910695537085	-37.324786951127045	51.64538004893039	0	0	0
121	1	1	-38.671663514757036	-37.9470439207302	51.23521308068143	0	0	0
122	1	1	-39.33841633397699	-38.613387419828626	51.56901993991521	0	0	0
123	1	1	-40.00516915319694	-39.23564438943178	51.15885297166625	0	0	0
124	1	1	-40.67192197241689	-39.90198788853021	51.492659830900024	0	0	0
125	1	1	-41.33867479163684	-40.524244858133365	51.082492862651065	0	0	0
126	1	1	-0.24369398825587224	0.12169638373100228	54.57193316542404	0	0	0
127	1	1	-0.487387976511744	0.2879094781963502	55.527436408388816	0	0	0
128	1	1	-0.7310819647676157	1.1985061072349332	55.86124326762259	0	0	0
129	1	1	-0.9747759530234874	1.3647192017002812	56.816746510587365	0	0	0
130	1	1	-1.2184699412793591	2.2753158307388643	57.15055336982114	0	0	0
131	1	1	-1.4621639295352309	2.4415289252042123	58.10605661278591	0	0	0
132	1	1	-1.7058579177911026	3.3521255542427952	58.43986347201969	0	0	0
133	1	1	-1.9495519060469744	3.518338648708143	59.39536671498446	0	0	0
134	1	1	-2.193245894302846	4.428935277746726	59.72917357421824	0	0	0
135	1	1	-2.436939882558718	4.5951483722120745	60.68467681718301	0	0	0
136	1	1	-2.6806338708145896	5.5057450012506575	61.018483676416785	0	0	0
137	1	1	-2.9243278590704613	5.671958095716006	61.97398691938156	0	0	0
138	1	1	-3.168021847326333	6.582554724754589	62.307793778615334	0	0	0
139	1	1	-3.411715835582205	6.748767819219937	63.26329702158011	0	0	0
140	1	1	-3.6554098238380766	7.65936444825852	63.59710388081388	0	0	0
141	1	1	-3.8991038120939483	7.8255775427238685	64.55260712377866	0	0	0
142	1	1	-4.14279780034982	8.736174171762451	64.88641398301243	0	0	0
143	1	1	-4.386491788605692	8.9023872662278	65.84191722597721	0	0	0
144	1	1	-4.630185776861564	9.812983895266383	66.17572408521099	0	0	0
145	1	1	-4.873879765117437	9.979196989731731	67.13122732817577	0	0	0
146	1	1	-5.117573753373309	10.889793618770314	67.46503418740954	0	0	0
147	1	1	-5.361267741629181	11.056006713235663	68.42053743037432	0	0	0
148	1	1	-5.604961729885053	11.966603342274245	68.7543442896081	0	0	0
149	1	1	-5.848655718140925	12.132816436739594	69.70984753257288	0	0	0
150	1	1	-6.0923497063967975	13.043413065778177	70.04365439180665	0	0	0
151	1	1	-6.33604369465267	13.209626160243525	70.99915763477144	0	0	0
152	1	1	-6.579737682908542	14.120222789282108	71.33296449400521	0	0	0
153	1	1	-6.823431671164414	14.286435883747457	72.28846773696999	0	0	0
154	1	1	-7.067125659420286	15.19703251278604	72.62227459620377	0	0	0
155	1	1	-7.310819647676158	15.363245607251388	73.57777783916855	0	0	0
156	1	1	-7.554513635932031	16.273842236289973	73.91158469840232	0	0	0
157	1	1	-7.798207624187903	16.44005533075532	74.8670879413671	0	0	0
158	1	1	-8.041901612443775	17.350651959793904	75.20089480060088	0	0	0
159	1	1	-8.285595600699647	17.516865054259252	76.15639804356566	0	0	0
160	1	1	-8.52928958895552	18.427461683297835	76.49020490279943	0	0	0
161	1	1	-8.772983577211392	18.593674777763184	77.44570814576421	0	0	0
162	1	1	-9.016677565467264	19.504271406801767	77.77951500499799	0	0	0
163	1	1	-9.260371553723136	19.670484501267115	78.73501824796277	0	0	0
164	1	1	-9.504065541979008	20.581081130305698	79.06882510719655	0	0	0
165	1	1	-9.74775953023488	20.747294224771046	80.02432835016133	0	0	0
166	1	1	-9.991453518490752	21.65789085380963	80.3581352093951	0	0	0
167	1	1	-10.235147506746625	21.824103948274978	81.31363845235988	0	0	0
168	1	1	-10.478841495002497	22.73470057731356	81.64744531159366	0	0	0
169	1	1	-10.722535483258369	22.90091367177891	82.60294855455844	0	0	0
170	1	1	-10.966229471514241	23.811510300817492	82.93675541379221	0	0	0
171	1	1	-11.209923459770113	23.97772339528284	83.892258656757	0	0	0
172	1	1	-11.453617448025986	24.888320024321423	84.22606551599077	0	0	0
173	1	1	-11.697311436281858	25.05453311878677	85.18156875895555	0	0	0
174	1	1	-11.94100542453773	25.965129747825355	85.51537561818932	0	0	0
175	1	1	-12.184699412793602	26.131342842290703	86.4708788611541	0	0	0
176	1	1	-12.428393401049474	27.041939471329286	86.80468572038788	0	0	0
177	1	1	-12.672087389305347	27.208152565794634	87.76018896335266	0	0	0
178	1	1	-12.915781377561219	28.118749194833217	88.09399582258644	0	0	0
179	1	1	-13.15947536581709	28.284962289298566	89.04949906555122	0	0	0
180	1	1	-13.403169354072963	29.19555891833715	89.38330592478499	0	0	0
181	1	1	-13.646863342328835	29.361772012802497	90.33880916774977	0	0	0
182	1	1	-13.890557330584707	30.27236864184108	90.67261602698355	0	0	0
183	1	1	-14.13425131884058	30.43858173630643	91.62811926994833	0	0	0
184	1	1	-14.377945307096452	31.34917836534501	91.9619261291821	0	0	0
185	1	1	-14.621639295352324	31.51539145981036	92.91742937214688	0	0	0
186	1	1	-14.865333283608196	32.425988088848946	93.25123623138066	0	0	0
187	1	1	-15.109027271864068	32.592201183314295	94.20673947434544	0	0	0
188	1	1	0.9104468074758237	-0.8784328450989307	53.99450828593467	0	0	0
189	1	1	1.820893614951646	-1.2896446301229574	53.94988230006952	0	0	0
190	1	1	2.731340422427468	-1.5338977600631205	54.28368915930329	0	0	0
191	1	1	3.64178722990329	-1.9451095450871472	54.23906317343814	0	0	0
192	1	1	4.552234037379112	-2.1893626750273105	54.572870032671915	0	0	0
193	1	1	5.462680844854933	-2.6005744600513374	54.52824404680676	0	0	0
194	1	1	6.373127652330755	-2.8448275899915005	54.86205090604054	0	0	0
195	1	1	7.283574459806577	-3.2560393750155274	54.817424920175384	0	0	0
196	1	1	8.194021267282398	-3.5002925049556906	55.15123177940916	0	0	0
197	1	1	9.10446807475822	-3.9115042899797174	55.106605793544006	0	0	0
198	1	1	10.014914882234041	-4.155757419919881	55.44041265277778	0	0	0
199	1	1	10.925361689709863	-4.5669692049439075	55.39578666691263	0	0	0
200	1	1	11.835808497185685	-4.811222334884071	55.7295935261464	0	0	0
201	1	1	12.746255304661506	-5.2224341199080975	55.68496754028125	0	0	0
202	1	1	13.656702112137328	-5.466687249848261	56.018774399515024	0	0	0
203	1	1	14.56714891961315	-5.8778990348722875	55.97414841364987	0	0	0
204	1	1	15.477595727088971	-6.122152164812451	56.307955272883646	0	0	0
205	1	1	16.388042534564793	-6.5333639498364775	56.26332928701849	0	0	0
206	1	1	17.298489342040615	-6.777617079776641	56.59713614625227	0	0	0
207	1	1	18.208936149516436	-7.1888288648006675	56.552510160387115	0	0	0
208	1	1	19.119382956992258	-7.433081994740831	56.88631701962089	0	0	0
209	1	1	20.02982976446808	-7.8442937797648575	56.84169103375574	0	0	0
210	1	1	20.9402765719439	-8.08854690970502	57.17549789298951	0	0	0
211	1	1	21.850723379419723	-8.499758694729046	57.13087190712436	0	0	0
212	1	1	22.761170186895544	-8.744011824669208	57.46467876635813	0	0	0
213	1	1	23.671616994371366	-9.155223609693234	57.42005278049298	0	0	0
214	1	1	24.582063801847188	-9.399476739633396	57.753859639726755	0	0	0
215	1	1	25.49251060932301	-9.810688524657422	57.7092336538616	0	0	0
216	1	1	26.40295741679883	-10.054941654597584	58.04304051309538	0	0	0
217	1	1	27.313404224274652	-10.46615343962161	57.998414527230224	0	0	0
218	1	1	28.223851031750474	-10.710406569561773	58.332221386464	0	0	0
219	1	1	29.134297839226296	-11.121618354585799	58.287595400598846	0	0	0
220	1	1	30.044744646702117	-11.365871484525961	58.62140225983262	0	0	0
221	1	1	30.95519145417794	-11.777083269549987	58.57677627396747	0	0	0
222	1	1	31.86563826165376	-12.02133639949015	58.91058313320124	0	0	0
223	1	1	32.776085069129586	-12.432548184514175	58.86595714733609	0	0	0
224	1	1	33.68653187660541	-12.676801314454337	59.199764006569865	0	0	0
225	1	1	34.59697868408123	-13.088013099478363	59.15513802070471	0	0	0
226	1	1	35.50742549155705	-13.332266229418526	59.48894487993849	0	0	0
227	1	1	36.41787229903287	-13.743478014442552	59.444318894073334	0	0	0
228	1	1	37.328319106508694	-13.987731144382714	59.77812575330711	0	0	0
229	1	1	38.238765913984516	-14.39894292940674	59.733499767441955	0	0	0
230	1	1	39.14921272146034	-14.643196059346902	60.06730662667573	0	0	0
231	1	1	40.05965952893616	-15.054407844370928	60.02268064081058	0	0	0
232	1	1	40.97010633641198	-15.29866097431109	60.35648750004435	0	0	0
233	1	1	41.8805531438878	-15.709872759335116	60.3118615141792	0	0	0
234	1	1	42.790999951363624	-15.954125889275279	60.645668373412974	0	0	0
235	1	1	43.701446758839445	-16.365337674299305	60.60104238754782	0	0	0
236	1	1	44.61189356631527	-16.609590804239467	60.934849246781596	0	0	0
237	1	1	45.52234037379109	-17.020802589263493	60.89022326091644	0	0	0
238	1	1	46.43278718126691	-17.265055719203655	61.22403012015022	0	0	0
239	1	1	47.34323398874273	-17.67626750422768	61.179404134285065	0	0	0
240	1	1	48.25368079621855	-17.920520634167843	61.51321099351884	0	0	0
241	1	1	49.164127603694375	-18.33173241919187	61.46858500765369	0	0	0
242	1	1	50.0745744111702	-18.57598554913203	61.80239186688746	0	0	0
243	1	1	50.98502121864602	-18.987197334156058	61.75776588102231	0	0	0
244	1	1	51.89546802612184	-19.23145046409622	62.09157274025608	0	0	0
245	1	1	52.80591483359766	-19.642662249120246	62.04694675439093	0	0	0
246	1	1	53.71636164107348	-19.886915379060408	62.380753613624705	0	0	0
247	1	1	54.626808448549305	-20.298127164084434	62.33612762775955	0	0	0
248	1	1	55.53725525602513	-20.542380294024596	62.66993448699333	0	0	0
249	1	1	56.44770206350095	-20.953592079048622	62.625308501128174	0	0	0
250	1	1	56.88033836301206	-20.713175841464942	61.756386257741894	0	0	0
251	1	1	57.31297466252317	-20.07050815054206	61.124085639847856	0	0	0
252	1	1	57.74561096203428	-20.296762703005456	60.251368784370136	0	0	0
253	1	1	58.17824726154539	-19.654095012082575	59.6190681664761	0	0	0
254	1	1	58.6108835610565	-19.88034956454597	58.74635131099838	0	0	0
255	1	1	59.043519860567606	-19.23768187362309	58.11405069310434	0	0	0
256	1	1	59.476156160078716	-19.463936426086484	57.24133383762662	0	0	0
257	1	1	59.908792459589826	-18.821268735163603	56.60903321973258	0	0	0
258	1	1	60.341428759100936	-19.047523287626998	55.73631636425486	0	0	0
259	1	1	60.774065058612045	-18.404855596704117	55.10401574636082	0	0	0
260	1	1	61.206701358123155	-18.63111014916751	54.2312988908831	0	0	0
261	1	1	61.639337657634265	-17.98844245824463	53.598998272989064	0	0	0
262	1	1	62.071973957145374	-18.214697010708026	52.726281417511345	0	0	0
263	1	1	62.504610256656484	-17.572029319785145	52.093980799617306	0	0	0
264	1	1	62.937246556167594	-17.79828387224854	51.22126394413959	0	0	0
265	1	1	63.3698828556787	-17.15561618132566	50.58896332624555	0	0	0
266	1	1	63.80251915518981	-17.381870733789054	49.71624647076783	0	0	0
267	1	1	64.23515545470092	-16.739203042866173	49.08394585287379	0	0	0
268	1	1	64.66779175421202	-16.965457595329568	48.21122899739607	0	0	0
269	1	1	65.10042805372312	-16.322789904406687	47.57892837950203	0	0	0
270	1	1	65.53306435323422	-16.54904445687008	46.70621152402431	0	0	0
271	1	1	65.96570065274533	-15.9063767659472	46.07391090613027	0	0	0
272	1	1	66.39833695225643	-16.132631318410596	45.20119405065255	0	0	0
273	1	1	66.83097325176753	-15.489963627487715	44.568893432758514	0	0	0
274	1	1	67.26360955127863	-15.716218179951111	43.696176577280795	0	0	0
275	1	1	67.69624585078974	-15.07355048902823	43.063875959386756	0	0	0
276	1	1	68.12888215030084	-15.299805041491627	42.19115910390904	0	0	0
277	1	1	68.56151844981194	-14.657137350568746	41.558858486015	0	0	0
278	1	1	68.99415474932304	-14.883391903032143	40.68614163053728	0	0	0
279	1	1	69.42679104883415	-14.240724212109262	40.05384101264324	0	0	0
280	1	1	69.85942734834525	-14.466978764572659	39.18112415716552	0	0	0
281	1	1	70.29206364785635	-13.824311073649778	38.54882353927148	0	0	0
282	1	1	70.72469994736745	-14.050565626113174	37.67610668379376	0	0	0
283	1	1	71.15733624687856	-13.407897935190293	37.04380606589972	0	0	0
284	1	1	71.58997254638966	-13.63415248765369	36.171089210422004	0	0	0
285	1	1	72.02260884590076	-12.99148479673081	35.538788592527965	0	0	0
286	1	1	72.45524514541187	-13.217739349194206	34.666071737050245	0	0	0
287	1	1	72.88788144492297	-12.575071658271325	34.03377111915621	0	0	0
288	1	1	73.32051774443407	-12.801326210734722	33.16105426367849	0	0	0
289	1	1	73.75315404394517	-12.15865851981184	32.52875364578445	0	0	0
290	1	1	74.18579034345628	-12.384913072275237	31.656036790306725	0	0	0
291	1	1	74.61842664296738	-11.742245381352356	31.023736172412683	0	0	0
292	1	1	75.05106294247848	-11.968499933815753	30.15101931693496	0	0	0
293	1	1	75.48369924198958	-11.325832242892872	29.518718699040917	0	0	0
294	1	1	75.91633554150069	-11.552086795356269	28.646001843563194	0	0	0
295	1	1	76.34897184101179	-10.909419104433388	28.013701225669152	0	0	0
296	1	1	76.78160814052289	-11.135673656896785	27.14098437019143	0	0	0
297	1	1	77.214244440034	-10.493005965973904	26.508683752297387	0	0	0
298	1	1	77.6468807395451	-10.7192605184373	25.635966896819664	0	0	0
299	1	1	78.0795170390562	-10.07659282751442	25.00366627892562	0	0	0
300	1	1	78.5121533385673	-10.302847379977816	24.1309494234479	0	0	0
301	1	1	78.9447896380784	-9.660179689054935	23.498648805553856	0	0	0
302	1	1	79.3774259375895	-9.886434241518332	22.625931950076133	0	0	0
303	1	1	79.81006223710061	-9.243766550595451	21.99363133218209	0	0	0
304	1	1	80.24269853661171	-9.470021103058848	21.120914476704368	0	0	0
305	1	1	80.67533483612281	-8.827353412135967	20.488613858810325	0	0	0
306	1	1	81.10797113563392	-9.053607964599363	19.615897003332602	0	0	0
307	1	1	81.54060743514502	-8.410940273676482	18.98359638543856	0	0	0
308	1	1	81.97324373465612	-8.63719482613988	18.110879529960837	0	0	0
309	1	1	82.40588003416723	-7.994527135216998	17.478578912066794	0	0	0
310	1	1	82.83851633367833	-8.220781687680395	16.60586205658907	0	0	0
311	1	1	83.27115263318943	-7.578113996757514	15.973561438695029	0	0	0
312	1	1	56.36852211342551	-21.94809714862472	62.69379355127412	0	0	0
313	1	1	56.28934216335008	-22.843606328143004	62.25585080969191	0	0	0
314	1	1	56.21016221327464	-23.670630457515344	62.812413137685795	0	0	0
315	1	1	56.13098226319921	-24.56613963703363	62.37447039610358	0	0	0
316	1	1	56.05180231312377	-25.39316376640597	62.93103272409747	0	0	0
317	1	1	55.97262236304834	-26.288672945924255	62.49308998251526	0	0	0
318	1	1	55.8934424129729	-27.115697075296595	63.049652310509146	0	0	0
319	1	1	55.81426246289747	-28.01120625481488	62.61170956892693	0	0	0
320	1	1	55.73508251282203	-28.83823038418722	63.16827189692082	0	0	0
321	1	1	55.6559025627466	-29.733739563705505	62.73032915533861	0	0	0
322	1	1	55.57672261267116	-30.560763693077845	63.2868914833325	0	0	0
323	1	1	55.49754266259573	-31.45627287259613	62.848948741750284	0	0	0
324	1	1	55.41836271252029	-32.28329700196847	63.40551106974417	0	0	0
325	1	1	55.33918276244486	-33.178806181486756	62.96756832816196	0	0	0
326	1	1	55.26000281236942	-34.005830310859096	63.52413065615585	0	0	0
327	1	1	55.18082286229399	-34.90133949037738	63.086187914573635	0	0	0
328	1	1	55.10164291221855	-35.72836361974972	63.64275024256752	0	0	0
329	1	1	55.022462962143116	-36.62387279926801	63.20480750098531	0	0	0
330	1	1	54.94328301206768	-37.45089692864035	63.7613698289792	0	0	0
331	1	1	54.864103061992246	-38.34640610815863	63.323427087396986	0	0	0
332	1	1	54.78492311191681	-39.17343023753097	63.879989415390874	0	0	0
333	1	1	54.705743161841376	-40.06893941704926	63.44204667380866	0	0	0
334	1	1	54.62656321176594	-40.8959635464216	63.99860900180255	0	0	0
335	1	1	54.547383261690506	-41.79147272593988	63.56066626022034	0	0	0
336	1	1	54.46820331161507	-42.61849685531222	64.11722858821423	0	0	0
337	1	1	54.389023361539635	-43.51400603483051	63.67928584663202	0	0	0
338	1	1	54.3098434114642	-44.34103016420285	64.23584817462591	0	0	0
339	1	1	54.230663461388765	-45.236539343721134	63.7979054330437	0	0	0
340	1	1	54.15148351131333	-46.063563473093474	64.3544677610376	0	0	0
341	1	1	54.072303561237895	-46.95907265261176	63.916525019455385	0	0	0
342	1	1	53.99312361116246	-47.7860967819841	64.47308734744928	0	0	0
343	1	1	53.913943661087025	-48.681605961502385	64.03514460586707	0	0	0
344	1	1	53.83476371101159	-49.508630090874725	64.59170693386096	0	0	0
345	1	1	53.755583760936155	-50.40413927039301	64.15376419227876	0	0	0
346	1	1	53.67640381086072	-51.23116339976535	64.71032652027264	0	0	0
347	1	1	53.597223860785284	-52.126672579283635	64.27238377869044	0	0	0
348	1	1	53.51804391070985	-52.953696708655976	64.82894610668433	0	0	0
349	1	1	53.438863960634414	-53.84920588817426	64.39100336510212	0	0	0
350	1	1	53.35968401055898	-54.6762300175466	64.94756569309601	0	0	0
351	1	1	53.280504060483544	-55.571739197064886	64.5096229515138	0	0	0
352	1	1	53.20132411040811	-56.398763326437226	65.06618527950769	0	0	0
353	1	1	53.122144160332674	-57.29427250595551	64.62824253792549	0	0	0
354	1	1	53.04296421025724	-58.12129663532785	65.18480486591938	0	0	0
355	1	1	52.963784260181804	-59.01680581484614	64.74686212433717	0	0	0
356	1	1	52.88460431010637	-59.84382994421848	65.30342445233106	0	0	0
357	1	1	52.80542436003093	-60.73933912373676	64.86548171074885	0	0	0
358	1	1	52.7262444099555	-61.5663632531091	65.42204403874274	0	0	0
359	1	1	52.64706445988006	-62.46187243262739	64.98410129716054	0	0	0
360	1	1	52.56788450980463	-63.28889656199973	65.54066362515442	0	0	0
361	1	1	52.48870455972919	-64.184405741518	65.10272088357222	0	0	0
362	1	1	52.40952460965376	-65.01142987089034	65.6592832115661	0	0	0
363	1	1	52.33034465957832	-65.90693905040862	65.2213404699839	0	0	0
364	1	1	52.25116470950289	-66.73396317978096	65.77790279797779	0	0	0
365	1	1	52.17198475942745	-67.62947235929924	65.33996005639558	0	0	0
366	1	1	52.09280480935202	-68.45649648867158	65.89652238438947	0	0	0
367	1	1	52.01362485927658	-69.35200566818986	65.45857964280727	0	0	0
368	1	1	51.93444490920115	-70.1790297975622	66.01514197080115	0	0	0
369	1	1	51.85526495912571	-71.07453897708048	65.57719922921895	0	0	0
370	1	1	51.77608500905028	-71.90156310645281	66.13376155721284	0	0	0
371	1	1	51.69690505897484	-72.7970722859711	65.69581881563063	0	0	0
372	1	1	51.61772510889941	-73.62409641534343	66.25238114362452	0	0	0
373	1	1	51.53854515882397	-74.51960559486172	65.81443840204231	0	0	0
374	1	1	57.00598588197402	-20.611299190372556	63.38105631382294	0	0	0
375	1	1	57.56426970044709	-20.692738759591702	64.20669956280916	0	0	0
376	1	1	58.122553518920164	-20.018430516116087	64.69004992311932	0	0	0
377	1	1	58.680837337393235	-20.099870085335233	65.51569317210554	0	0	0
378	1	1	59.23912115586631	-19.42556184185962	65.9990435324157	0	0	0
379	1	1	59.79740497433938	-19.507001411078765	66.82468678140192	0	0	0
380	1	1	60.35568879281245	-18.83269316760315	67.30803714171208	0	0	0
381	1	1	60.91397261128552	-18.914132736822296	68.1336803906983	0	0	0
382	1	1	61.472256429758595	-18.23982449334668	68.61703075100846	0	0	0
383	1	1	62.03054024823167	-18.321264062565827	69.44267399999468	0	0	0
384	1	1	62.58882406670474	-17.646955819090213	69.92602436030484	0	0	0
385	1	1	63.14710788517781	-17.72839538830936	70.75166760929106	0	0	0
386	1	1	63.70539170365088	-17.054087144833744	71.23501796960122	0	0	0
387	1	1	64.26367552212396	-17.13552671405289	72.06066121858744	0	0	0
388	1	1	64.82195934059703	-16.461218470577275	72.5440115788976	0	0	0
389	1	1	65.3802431590701	-16.54265803979642	73.36965482788382	0	0	0
390	1	1	65.93852697754318	-15.868349796320807	73.85300518819398	0	0	0
391	1	1	66.49681079601625	-15.949789365539955	74.6786484371802	0	0	0
392	1	1	67.05509461448932	-15.27548112206434	75.16199879749036	0	0	0
393	1	1	67.61337843296239	-15.356920691283488	75.98764204647658	0	0	0
394	1	1	68.17166225143546	-14.682612447807873	76.47099240678673	0	0	0
395	1	1	68.72994606990854	-14.764052017027021	77.29663565577296	0	0	0
396	1	1	69.28822988838161	-14.089743773551406	77.77998601608311	0	0	0
397	1	1	69.84651370685468	-14.171183342770554	78.60562926506934	0	0	0
398	1	1	70.40479752532775	-13.49687509929494	79.0889796253795	0	0	0
399	1	1	70.96308134380082	-13.578314668514087	79.91462287436572	0	0	0
400	1	1	71.5213651622739	-12.904006425038473	80.39797323467587	0	0	0
401	1	1	72.07964898074697	-12.98544599425762	81.2236164836621	0	0	0
402	1	1	72.63793279922004	-12.311137750782006	81.70696684397225	0	0	0
403	1	1	73.19621661769311	-12.392577320001154	82.53261009295848	0	0	0
404	1	1	73.75450043616618	-11.718269076525539	83.01596045326863	0	0	0
405	1	1	74.31278425463925	-11.799708645744687	83.84160370225486	0	0	0
406	1	1	74.87106807311233	-11.125400402269072	84.32495406256501	0	0	0
407	1	1	75.4293518915854	-11.20683997148822	85.15059731155124	0	0	0
408	1	1	75.98763571005847	-10.532531728012605	85.63394767186139	0	0	0
409	1	1	76.54591952853154	-10.613971297231753	86.45959092084762	0	0	0
410	1	1	77.10420334700461	-9.939663053756139	86.94294128115777	0	0	0
411	1	1	77.66248716547769	-10.021102622975286	87.768584530144	0	0	0
412	1	1	78.22077098395076	-9.346794379499672	88.25193489045415	0	0	0
413	1	1	78.77905480242383	-9.42823394871882	89.07757813944038	0	0	0
414	1	1	79.3373386208969	-8.753925705243205	89.56092849975053	0	0	0
415	1	1	79.89562243936997	-8.835365274462353	90.38657174873676	0	0	0
416	1	1	80.45390625784304	-8.161057030986738	90.86992210904691	0	0	0
417	1	1	81.01219007631612	-8.242496600205886	91.69556535803314	0	0	0
418	1	1	81.57047389478919	-7.568188356730272	92.17891571834329	0	0	0
419	1	1	82.12875771326226	-7.649627925949419	93.00455896732952	0	0	0
420	1	1	82.68704153173533	-6.975319682473805	93.48790932763967	0	0	0
421	1	1	83.2453253502084	-7.056759251692952	94.3135525766259	0	0	0
422	1	1	83.80360916868148	-6.3824510082173385	94.79690293693605	0	0	0
423	1	1	84.36189298715455	-6.463890577436485	95.62254618592227	0	0	0
424	1	1	84.92017680562762	-5.789582333960872	96.10589654623243	0	0	0
425	1	1	85.47846062410069	-5.871021903180019	96.93153979521865	0	0	0
426	1	1	86.03674444257376	-5.196713659704405	97.41489015552881	0	0	0
427	1	1	86.59502826104683	-5.278153228923552	98.24053340451503	0	0	0
428	1	1	87.1533120795199	-4.603844985447938	98.72388376482519	0	0	0
429	1	1	87.71159589799298	-4.685284554667085	99.54952701381141	0	0	0
430	1	1	88.26987971646605	-4.010976311191471	100.03287737412157	0	0	0
431	1	1	88.82816353493912	-4.092415880410618	100.8585206231078	0	0	0
432	1	1	89.3864473534122	-3.418107636935004	101.34187098341795	0	0	0
433	1	1	89.94473117188527	-3.499547206154151	102.16751423240417	0	0	0
434	1	1	90.50301499035834	-2.8252389626785366	102.65086459271433	0	0	0
435	1	1	91.06129880883141	-2.9066785318976835	103.47650784170055	0	0	0
436	1	1	90.87875643642444	-2.1310641513574575	104.0807434041886	0	0	0
437	1	1	90.69621406401747	-1.7614801755131118	104.99183394144333	0	0	0
438	1	1	90.5136716916105	-0.7876606371807267	105.12731009815784	0	0	0
439	1	1	90.33112931920353	-0.4180766613363808	106.03840063541257	0	0	0
440	1	1	90.14858694679656	0.5557428769960043	106.17387679212707	0	0	0
441	1	1	89.96604457438958	0.9253268528403502	107.08496732938181	0	0	0
442	1	1	89.78350220198261	1.8991463911727353	107.22044348609631	0	0	0
443	1	1	89.60095982957564	2.2687303670170813	108.13153402335105	0	0	0
444	1	1	89.41841745716867	3.2425499053494664	108.26701018006555	0	0	0
445	1	1	89.2358750847617	3.612133881193812	109.17810071732029	0	0	0
446	1	1	89.05333271235473	4.585953419526197	109.3135768740348	0	0	0
447	1	1	88.87079033994776	4.955537395370543	110.22466741128953	0	0	0