bb412nuc5bl68bn4d30tot1100

1093 atoms
1092 bonds
1106 angles

1 atom types
1 bond types
1 angle types

-1000 1000 xlo xhi
-1000 1000 ylo yhi
-1000 1000 zlo zhi

Masses

1 1

Atoms

1	1	1	0.0	0.0	0.0	0	0	0
2	1	1	0.0	0.0	1.0	0	0	0
3	1	1	0.0	-0.49999999999999994	1.8660254037844388	0	0	0
4	1	1	0.0	0.0	2.7320508075688776	0	0	0
5	1	1	0.0	-0.49999999999999994	3.5980762113533165	0	0	0
6	1	1	0.0	0.0	4.464101615137755	0	0	0
7	1	1	0.0	-0.49999999999999994	5.330127018922194	0	0	0
8	1	1	0.0	0.0	6.196152422706632	0	0	0
9	1	1	0.0	-0.49999999999999994	7.06217782649107	0	0	0
10	1	1	0.0	0.0	7.928203230275509	0	0	0
11	1	1	0.0	-0.49999999999999994	8.794228634059948	0	0	0
12	1	1	0.0	0.0	9.660254037844387	0	0	0
13	1	1	0.0	-0.49999999999999994	10.526279441628827	0	0	0
14	1	1	0.0	0.0	11.392304845413266	0	0	0
15	1	1	0.0	-0.49999999999999994	12.258330249197705	0	0	0
16	1	1	0.0	0.0	13.124355652982144	0	0	0
17	1	1	0.0	-0.49999999999999994	13.990381056766584	0	0	0
18	1	1	0.0	0.0	14.856406460551023	0	0	0
19	1	1	0.0	-0.49999999999999994	15.722431864335462	0	0	0
20	1	1	0.0	0.0	16.5884572681199	0	0	0
21	1	1	0.0	-0.49999999999999994	17.454482671904337	0	0	0
22	1	1	0.0	0.0	18.320508075688775	0	0	0
23	1	1	0.0	-0.49999999999999994	19.186533479473212	0	0	0
24	1	1	0.0	0.0	20.05255888325765	0	0	0
25	1	1	0.0	-0.49999999999999994	20.918584287042087	0	0	0
26	1	1	0.0	0.0	21.784609690826525	0	0	0
27	1	1	0.0	-0.49999999999999994	22.650635094610962	0	0	0
28	1	1	0.0	0.0	23.5166604983954	0	0	0
29	1	1	0.0	-0.49999999999999994	24.382685902179837	0	0	0
30	1	1	0.0	0.0	25.248711305964274	0	0	0
31	1	1	0.0	-0.49999999999999994	26.114736709748712	0	0	0
32	1	1	0.0	0.0	26.98076211353315	0	0	0
33	1	1	0.0	-0.49999999999999994	27.846787517317587	0	0	0
34	1	1	0.0	0.0	28.712812921102024	0	0	0
35	1	1	0.0	-0.49999999999999994	29.578838324886462	0	0	0
36	1	1	0.0	0.0	30.4448637286709	0	0	0
37	1	1	0.0	-0.49999999999999994	31.310889132455337	0	0	0
38	1	1	0.0	0.0	32.17691453623978	0	0	0
39	1	1	0.0	-0.49999999999999994	33.04293994002422	0	0	0
40	1	1	0.0	0.0	33.90896534380866	0	0	0
41	1	1	0.0	-0.49999999999999994	34.7749907475931	0	0	0
42	1	1	0.0	0.0	35.64101615137754	0	0	0
43	1	1	0.0	-0.49999999999999994	36.50704155516198	0	0	0
44	1	1	0.0	0.0	37.373066958946424	0	0	0
45	1	1	0.0	-0.49999999999999994	38.239092362730865	0	0	0
46	1	1	0.0	0.0	39.105117766515306	0	0	0
47	1	1	0.0	-0.49999999999999994	39.97114317029975	0	0	0
48	1	1	0.0	0.0	40.83716857408419	0	0	0
49	1	1	0.0	-0.49999999999999994	41.70319397786863	0	0	0
50	1	1	0.0	0.0	42.56921938165307	0	0	0
51	1	1	0.0	-0.49999999999999994	43.43524478543751	0	0	0
52	1	1	0.0	0.0	44.30127018922195	0	0	0
53	1	1	0.0	-0.49999999999999994	45.16729559300639	0	0	0
54	1	1	0.0	0.0	46.033320996790835	0	0	0
55	1	1	0.0	-0.49999999999999994	46.899346400575276	0	0	0
56	1	1	0.0	0.0	47.76537180435972	0	0	0
57	1	1	0.0	-0.49999999999999994	48.63139720814416	0	0	0
58	1	1	0.0	0.0	49.4974226119286	0	0	0
59	1	1	0.0	-0.49999999999999994	50.36344801571304	0	0	0
60	1	1	0.0	0.0	51.22947341949748	0	0	0
61	1	1	0.0	-0.49999999999999994	52.09549882328192	0	0	0
62	1	1	0.0	0.0	52.96152422706636	0	0	0
63	1	1	0.0	-0.49999999999999994	53.827549630850804	0	0	0
64	1	1	0.0	0.0	54.693575034635245	0	0	0
65	1	1	0.0	-0.49999999999999994	55.559600438419686	0	0	0
66	1	1	0.0	0.0	56.42562584220413	0	0	0
67	1	1	0.0	-0.49999999999999994	57.29165124598857	0	0	0
68	1	1	0.0	0.0	58.15767664977301	0	0	0
69	1	1	0.0	-0.49999999999999994	59.02370205355745	0	0	0
70	1	1	0.11339684072978266	-1.4773265307996848	58.84488927798601	0	0	0
71	1	1	0.2267936814595651	-2.2343097464790067	58.2013696064201	0	0	0
72	1	1	0.34019052218934753	-3.170105737729765	58.535176465653876	0	0	0
73	1	1	0.45358736291913	-3.9270889534090867	57.891656794087964	0	0	0
74	1	1	0.5669842036489124	-4.862884944659845	58.22546365332174	0	0	0
75	1	1	0.6803810443786948	-5.619868160339166	57.58194398175583	0	0	0
76	1	1	0.7937778851084774	-6.555664151589925	57.9157508409896	0	0	0
77	1	1	0.9071747258382598	-7.312647367269246	57.27223116942369	0	0	0
78	1	1	1.0205715665680422	-8.248443358520005	57.606038028657466	0	0	0
79	1	1	1.1339684072978247	-9.005426574199326	56.962518357091554	0	0	0
80	1	1	1.2473652480276072	-9.941222565450085	57.29632521632533	0	0	0
81	1	1	1.3607620887573897	-10.698205781129406	56.65280554475942	0	0	0
82	1	1	1.4741589294871722	-11.634001772380165	56.98661240399319	0	0	0
83	1	1	1.5875557702169547	-12.390984988059486	56.34309273242728	0	0	0
84	1	1	1.7009526109467372	-13.326780979310245	56.676899591661055	0	0	0
85	1	1	1.8143494516765197	-14.083764194989566	56.03337992009514	0	0	0
86	1	1	1.9277462924063022	-15.019560186240325	56.36718677932892	0	0	0
87	1	1	2.0411431331360848	-15.776543401919646	55.723667107763006	0	0	0
88	1	1	2.1545399738658673	-16.712339393170403	56.05747396699678	0	0	0
89	1	1	2.2679368145956498	-17.469322608849726	55.41395429543087	0	0	0
90	1	1	2.3813336553254323	-18.405118600100483	55.747761154664644	0	0	0
91	1	1	2.494730496055215	-19.162101815779806	55.10424148309873	0	0	0
92	1	1	2.6081273367849973	-20.097897807030563	55.43804834233251	0	0	0
93	1	1	2.72152417751478	-20.854881022709886	54.794528670766596	0	0	0
94	1	1	2.8349210182445623	-21.790677013960643	55.12833553000037	0	0	0
95	1	1	2.948317858974345	-22.547660229639966	54.48481585843446	0	0	0
96	1	1	3.0617146997041274	-23.483456220890723	54.818622717668234	0	0	0
97	1	1	3.17511154043391	-24.240439436570046	54.17510304610232	0	0	0
98	1	1	3.2885083811636924	-25.176235427820803	54.5089099053361	0	0	0
99	1	1	3.401905221893475	-25.933218643500126	53.865390233770185	0	0	0
100	1	1	3.5153020626232574	-26.869014634750883	54.19919709300396	0	0	0
101	1	1	3.62869890335304	-27.625997850430206	53.55567742143805	0	0	0
102	1	1	3.7420957440828224	-28.561793841680963	53.88948428067182	0	0	0
103	1	1	3.855492584812605	-29.318777057360286	53.24596460910591	0	0	0
104	1	1	3.9688894255423874	-30.254573048611043	53.579771468339686	0	0	0
105	1	1	4.0822862662721695	-31.011556264290366	52.936251796773774	0	0	0
106	1	1	4.195683107001952	-31.947352255541123	53.27005865600755	0	0	0
107	1	1	4.3090799477317345	-32.704335471220446	52.62653898444164	0	0	0
108	1	1	4.422476788461517	-33.6401314624712	52.96034584367541	0	0	0
109	1	1	4.5358736291912995	-34.39711467815052	52.3168261721095	0	0	0
110	1	1	4.649270469921082	-35.33291066940128	52.650633031343276	0	0	0
111	1	1	4.762667310650865	-36.0898938850806	52.007113359777364	0	0	0
112	1	1	4.876064151380647	-37.025689876331356	52.34092021901114	0	0	0
113	1	1	4.98946099211043	-37.782673092010675	51.69740054744523	0	0	0
114	1	1	5.102857832840212	-38.71846908326143	52.031207406679	0	0	0
115	1	1	5.216254673569995	-39.47545229894075	51.38768773511309	0	0	0
116	1	1	5.329651514299777	-40.41124829019151	51.721494594346865	0	0	0
117	1	1	5.44304835502956	-41.16823150587083	51.07797492278095	0	0	0
118	1	1	5.556445195759342	-42.104027497121585	51.41178178201473	0	0	0
119	1	1	5.669842036489125	-42.861010712800905	50.768262110448816	0	0	0
120	1	1	5.783238877218907	-43.79680670405166	51.10206896968259	0	0	0
121	1	1	5.89663571794869	-44.55378991973098	50.45854929811668	0	0	0
122	1	1	6.010032558678472	-45.48958591098174	50.792356157350454	0	0	0
123	1	1	6.123429399408255	-46.24656912666106	50.14883648578454	0	0	0
124	1	1	6.236826240138037	-47.182365117911814	50.48264334501832	0	0	0
125	1	1	6.35022308086782	-47.939348333591134	49.839123673452406	0	0	0
126	1	1	6.463619921597602	-48.87514432484189	50.17293053268618	0	0	0
127	1	1	6.577016762327385	-49.63212754052121	49.52941086112027	0	0	0
128	1	1	6.690413603057167	-50.56792353177197	49.863217720354044	0	0	0
129	1	1	6.80381044378695	-51.32490674745129	49.21969804878813	0	0	0
130	1	1	6.917207284516732	-52.260702738702044	49.55350490802191	0	0	0
131	1	1	7.030604125246515	-53.01768595438136	48.909985236455995	0	0	0
132	1	1	7.144000965976297	-53.95348194563212	49.24379209568977	0	0	0
133	1	1	7.25739780670608	-54.71046516131144	48.60027242412386	0	0	0
134	1	1	7.370794647435862	-55.6462611525622	48.93407928335763	0	0	0
135	1	1	7.484191488165645	-56.403244368241516	48.29055961179172	0	0	0
136	1	1	7.597588328895427	-57.33904035949227	48.624366471025496	0	0	0
137	1	1	7.71098516962521	-58.09602357517159	47.980846799459584	0	0	0
138	1	1	-0.8671215215476883	-0.3467395095728196	59.49763399903364	0	0	0
139	1	1	-1.734243043095375	-0.45097800420451406	59.98470134869459	0	0	0
140	1	1	-2.601364564643062	-0.08128455336002016	60.31850820792836	0	0	0
141	1	1	-3.4684860861907487	-0.1855230479917146	60.805575557589314	0	0	0
142	1	1	-4.335607607738435	0.1841704028527793	61.13938241682308	0	0	0
143	1	1	-5.202729129286122	0.07993190822108485	61.626449766484036	0	0	0
144	1	1	-6.069850650833809	0.44962535906557877	61.960256625717804	0	0	0
145	1	1	-6.936972172381496	0.34538686443388433	62.44732397537876	0	0	0
146	1	1	-7.8040936939291825	0.7150803152783782	62.781130834612526	0	0	0
147	1	1	-8.671215215476868	0.6108418206466838	63.26819818427348	0	0	0
148	1	1	-9.538336737024554	0.9805352714911777	63.60200504350725	0	0	0
149	1	1	-10.40545825857224	0.8762967768594833	64.0890723931682	0	0	0
150	1	1	-11.272579780119926	1.2459902277039772	64.42287925240197	0	0	0
151	1	1	-12.139701301667612	1.1417517330722826	64.90994660206292	0	0	0
152	1	1	-13.006822823215298	1.5114451839167766	65.24375346129669	0	0	0
153	1	1	-13.873944344762984	1.407206689285082	65.73082081095764	0	0	0
154	1	1	-14.74106586631067	1.7769001401295759	66.06462767019141	0	0	0
155	1	1	-15.608187387858356	1.6726616454978813	66.55169501985236	0	0	0
156	1	1	-16.475308909406042	2.042355096342375	66.88550187908614	0	0	0
157	1	1	-17.34243043095373	1.9381166017106806	67.37256922874708	0	0	0
158	1	1	-18.209551952501418	2.3078100525551744	67.70637608798086	0	0	0
159	1	1	-19.076673474049105	2.20357155792348	68.1934434376418	0	0	0
160	1	1	-19.943794995596793	2.573265008767974	68.52725029687558	0	0	0
161	1	1	-20.81091651714448	2.4690265141362797	69.01431764653653	0	0	0
162	1	1	-21.67803803869217	2.8387199649807737	69.3481245057703	0	0	0
163	1	1	-22.545159560239856	2.7344814703490794	69.83519185543125	0	0	0
164	1	1	-23.412281081787544	3.1041749211935734	70.16899871466502	0	0	0
165	1	1	-24.27940260333523	2.999936426561879	70.65606606432597	0	0	0
166	1	1	-25.14652412488292	3.369629877406373	70.98987292355974	0	0	0
167	1	1	-26.013645646430607	3.2653913827746788	71.47694027322069	0	0	0
168	1	1	-26.880767167978295	3.635084833619173	71.81074713245447	0	0	0
169	1	1	-27.747888689525983	3.5308463389874785	72.29781448211541	0	0	0
170	1	1	-28.61501021107367	3.9005397898319725	72.63162134134919	0	0	0
171	1	1	-29.482131732621358	3.796301295200278	73.11868869101014	0	0	0
172	1	1	-30.349253254169046	4.165994746044772	73.45249555024391	0	0	0
173	1	1	-31.216374775716734	4.061756251413078	73.93956289990486	0	0	0
174	1	1	-32.08349629726442	4.431449702257572	74.27336975913863	0	0	0
175	1	1	-32.950617818812105	4.3272112076258775	74.76043710879958	0	0	0
176	1	1	-33.81773934035979	4.6969046584703715	75.09424396803335	0	0	0
177	1	1	-34.68486086190748	4.592666163838677	75.5813113176943	0	0	0
178	1	1	-35.55198238345517	4.962359614683171	75.91511817692808	0	0	0
179	1	1	-36.419103905002856	4.858121120051477	76.40218552658902	0	0	0
180	1	1	-37.286225426550544	5.227814570895971	76.7359923858228	0	0	0
181	1	1	-38.15334694809823	5.123576076264277	77.22305973548374	0	0	0
182	1	1	-39.02046846964592	5.493269527108771	77.55686659471752	0	0	0
183	1	1	-39.88758999119361	5.389031032477076	78.04393394437847	0	0	0
184	1	1	-40.754711512741295	5.75872448332157	78.37774080361224	0	0	0
185	1	1	-41.62183303428898	5.654485988689876	78.86480815327319	0	0	0
186	1	1	-42.48895455583667	6.02417943953437	79.19861501250696	0	0	0
187	1	1	-43.35607607738436	5.919940944902676	79.68568236216791	0	0	0
188	1	1	-44.223197598932046	6.28963439574717	80.01948922140168	0	0	0
189	1	1	-45.090319120479734	6.185395901115475	80.50655657106263	0	0	0
190	1	1	-45.95744064202742	6.555089351959969	80.8403634302964	0	0	0
191	1	1	-46.82456216357511	6.450850857328275	81.32743077995735	0	0	0
192	1	1	-47.6916836851228	6.820544308172769	81.66123763919113	0	0	0
193	1	1	-48.558805206670485	6.716305813541075	82.14830498885208	0	0	0
194	1	1	-49.42592672821817	7.085999264385569	82.48211184808585	0	0	0
195	1	1	-50.29304824976586	6.981760769753874	82.9691791977468	0	0	0
196	1	1	-51.16016977131355	7.351454220598368	83.30298605698057	0	0	0
197	1	1	-52.027291292861236	7.247215725966674	83.79005340664152	0	0	0
198	1	1	-52.89441281440892	7.616909176811168	84.1238602658753	0	0	0
199	1	1	-53.76153433595661	7.512670682179474	84.61092761553624	0	0	0
200	1	1	-54.6286558575043	7.882364133023968	84.94473447477002	0	0	0
201	1	1	-55.49577737905199	7.7781256383922734	85.43180182443096	0	0	0
202	1	1	-56.362898900599674	8.147819089236767	85.76560868366474	0	0	0
203	1	1	-57.23002042214736	8.043580594605073	86.25267603332568	0	0	0
204	1	1	-58.09714194369505	8.413274045449567	86.58648289255946	0	0	0
205	1	1	-58.96426346524274	8.309035550817873	87.0735502422204	0	0	0
206	1	1	0.753724680817912	-0.17664424847815435	59.59583854381452	0	0	0
207	1	1	1.5074493616358229	-0.18267819832896415	60.253001154570136	0	0	0
208	1	1	2.2611740424537334	0.3834243420772986	60.5868080138039	0	0	0
209	1	1	3.014898723271644	0.3773903922264888	61.243970624559516	0	0	0
210	1	1	3.7686234040895545	0.9434929326327515	61.577777483793284	0	0	0
211	1	1	4.522348084907465	0.9374589827819417	62.2349400945489	0	0	0
212	1	1	5.276072765725376	1.5035615231882045	62.568746953782664	0	0	0
213	1	1	6.029797446543286	1.4975275733373947	63.22590956453828	0	0	0
214	1	1	6.783522127361197	2.0636301137436575	63.559716423772045	0	0	0
215	1	1	7.537246808179107	2.0575961638928475	64.21687903452766	0	0	0
216	1	1	8.290971488997018	2.6236987042991102	64.55068589376144	0	0	0
217	1	1	9.044696169814928	2.6176647544483003	65.20784850451706	0	0	0
218	1	1	9.798420850632839	3.183767294854563	65.54165536375083	0	0	0
219	1	1	10.55214553145075	3.177733345003753	66.19881797450645	0	0	0
220	1	1	11.30587021226866	3.7438358854100158	66.53262483374023	0	0	0
221	1	1	12.05959489308657	3.737801935559206	67.18978744449585	0	0	0
222	1	1	12.813319573904481	4.303904475965469	67.52359430372962	0	0	0
223	1	1	13.567044254722392	4.297870526114659	68.18075691448524	0	0	0
224	1	1	14.320768935540302	4.863973066520922	68.51456377371902	0	0	0
225	1	1	15.074493616358213	4.857939116670112	69.17172638447464	0	0	0
226	1	1	15.828218297176123	5.4240416570763745	69.50553324370841	0	0	0
227	1	1	16.581942977994036	5.418007707225565	70.16269585446403	0	0	0
228	1	1	17.335667658811946	5.984110247631827	70.49650271369781	0	0	0
229	1	1	18.089392339629857	5.978076297781017	71.15366532445343	0	0	0
230	1	1	18.843117020447767	6.54417883818728	71.4874721836872	0	0	0
231	1	1	19.596841701265678	6.53814488833647	72.14463479444282	0	0	0
232	1	1	20.35056638208359	7.104247428742733	72.4784416536766	0	0	0
233	1	1	21.1042910629015	7.098213478891923	73.13560426443222	0	0	0
234	1	1	21.85801574371941	7.664316019298186	73.46941112366599	0	0	0
235	1	1	22.61174042453732	7.658282069447376	74.12657373442161	0	0	0
236	1	1	23.36546510535523	8.224384609853638	74.46038059365539	0	0	0
237	1	1	24.11918978617314	8.218350660002828	75.117543204411	0	0	0
238	1	1	24.872914466991052	8.784453200409091	75.45135006364478	0	0	0
239	1	1	25.626639147808962	8.778419250558281	76.1085126744004	0	0	0
240	1	1	26.380363828626873	9.344521790964544	76.44231953363418	0	0	0
241	1	1	27.134088509444783	9.338487841113734	77.0994821443898	0	0	0
242	1	1	27.887813190262694	9.904590381519997	77.43328900362357	0	0	0
243	1	1	28.641537871080605	9.898556431669187	78.09045161437919	0	0	0
244	1	1	29.395262551898515	10.46465897207545	78.42425847361297	0	0	0
245	1	1	30.148987232716426	10.45862502222464	79.08142108436859	0	0	0
246	1	1	30.902711913534336	11.024727562630902	79.41522794360236	0	0	0
247	1	1	31.656436594352247	11.018693612780092	80.07239055435798	0	0	0
248	1	1	32.41016127517016	11.584796153186355	80.40619741359176	0	0	0
249	1	1	33.16388595598807	11.578762203335545	81.06336002434738	0	0	0
250	1	1	33.91761063680598	12.144864743741808	81.39716688358115	0	0	0
251	1	1	34.67133531762389	12.138830793890998	82.05432949433677	0	0	0
252	1	1	35.4250599984418	12.70493333429726	82.38813635357054	0	0	0
253	1	1	36.178784679259714	12.69889938444645	83.04529896432616	0	0	0
254	1	1	36.932509360077624	13.265001924852713	83.37910582355994	0	0	0
255	1	1	37.686234040895535	13.258967975001903	84.03626843431556	0	0	0
256	1	1	38.439958721713445	13.825070515408166	84.37007529354933	0	0	0
257	1	1	39.193683402531356	13.819036565557356	85.02723790430495	0	0	0
258	1	1	39.947408083349266	14.385139105963619	85.36104476353873	0	0	0
259	1	1	40.70113276416718	14.379105156112809	86.01820737429435	0	0	0
260	1	1	41.45485744498509	14.945207696519072	86.35201423352812	0	0	0
261	1	1	42.208582125803	14.939173746668262	87.00917684428374	0	0	0
262	1	1	42.96230680662091	15.505276287074524	87.34298370351752	0	0	0
263	1	1	43.71603148743882	15.499242337223714	88.00014631427314	0	0	0
264	1	1	44.46975616825673	16.065344877629975	88.33395317350691	0	0	0
265	1	1	45.22348084907464	16.059310927779165	88.99111578426253	0	0	0
266	1	1	45.97720552989255	16.625413468185428	89.32492264349631	0	0	0
267	1	1	46.73093021071046	16.61937951833462	89.98208525425193	0	0	0
268	1	1	47.48465489152837	17.18548205874088	90.3158921134857	0	0	0
269	1	1	48.23837957234628	17.17944810889007	90.97305472424132	0	0	0
270	1	1	48.99210425316419	17.745550649296334	91.3068615834751	0	0	0
271	1	1	49.745828933982104	17.739516699445524	91.96402419423072	0	0	0
272	1	1	50.499553614800014	18.305619239851787	92.29783105346449	0	0	0
273	1	1	51.253278295617925	18.299585290000977	92.95499366422011	0	0	0
274	1	1	52.007002976435835	18.86568783040724	93.28880052345389	0	0	0
275	1	1	52.47651150955784	19.287574568623505	92.51318894705571	0	0	0
276	1	1	52.946020042679834	20.040744989637638	92.05243298753372	0	0	0
277	1	1	53.41552857580183	20.01830383425359	91.16979028979547	0	0	0
278	1	1	53.885037108923825	20.771474255267723	90.70903433027348	0	0	0
279	1	1	54.35454564204582	20.749033099883675	89.82639163253523	0	0	0
280	1	1	54.82405417516782	21.502203520897808	89.36563567301324	0	0	0
281	1	1	55.29356270828981	21.47976236551376	88.482992975275	0	0	0
282	1	1	55.76307124141181	22.232932786527893	88.022237015753	0	0	0
283	1	1	56.232579774533804	22.210491631143846	87.13959431801476	0	0	0
284	1	1	56.7020883076558	22.96366205215798	86.67883835849277	0	0	0
285	1	1	57.171596840777795	22.94122089677393	85.79619566075452	0	0	0
286	1	1	57.64110537389979	23.694391317788064	85.33543970123253	0	0	0
287	1	1	58.110613907021786	23.671950162404016	84.45279700349428	0	0	0
288	1	1	58.58012244014378	24.42512058341815	83.99204104397229	0	0	0
289	1	1	59.04963097326578	24.4026794280341	83.10939834623404	0	0	0
290	1	1	59.51913950638777	25.155849849048234	82.64864238671205	0	0	0
291	1	1	59.98864803950977	25.133408693664187	81.7659996889738	0	0	0
292	1	1	60.458156572631765	25.88657911467832	81.30524372945182	0	0	0
293	1	1	60.92766510575376	25.864137959294272	80.42260103171357	0	0	0
294	1	1	61.397173638875756	26.617308380308405	79.96184507219158	0	0	0
295	1	1	61.86668217199775	26.594867224924357	79.07920237445333	0	0	0
296	1	1	62.33619070511975	27.34803764593849	78.61844641493134	0	0	0
297	1	1	62.80569923824174	27.325596490554442	77.7358037171931	0	0	0
298	1	1	63.27520777136374	28.078766911568575	77.2750477576711	0	0	0
299	1	1	63.744716304485735	28.056325756184528	76.39240505993286	0	0	0
300	1	1	64.21422483760773	28.80949617719866	75.93164910041087	0	0	0
301	1	1	64.68373337072973	28.787055021814613	75.04900640267262	0	0	0
302	1	1	65.15324190385172	29.540225442828746	74.58825044315063	0	0	0
303	1	1	65.62275043697372	29.517784287444698	73.70560774541238	0	0	0
304	1	1	66.09225897009571	30.27095470845883	73.24485178589039	0	0	0
305	1	1	66.56176750321771	30.248513553074783	72.36220908815214	0	0	0
306	1	1	67.0312760363397	31.001683974088916	71.90145312863015	0	0	0
307	1	1	67.5007845694617	30.97924281870487	71.0188104308919	0	0	0
308	1	1	67.9702931025837	31.732413239719	70.55805447136991	0	0	0
309	1	1	68.43980163570569	31.709972084334954	69.67541177363167	0	0	0
310	1	1	68.90931016882769	32.46314250534908	69.21465581410968	0	0	0
311	1	1	69.37881870194968	32.44070134996504	68.33201311637143	0	0	0
312	1	1	69.84832723507168	33.19387177097917	67.87125715684944	0	0	0
313	1	1	70.31783576819367	33.17143061559513	66.98861445911119	0	0	0
314	1	1	70.78734430131567	33.92460103660926	66.5278584995892	0	0	0
315	1	1	71.25685283443767	33.90215988122522	65.64521580185095	0	0	0
316	1	1	71.72636136755966	34.65533030223935	65.18445984232896	0	0	0
317	1	1	72.19586990068166	34.632889146855305	64.30181714459071	0	0	0
318	1	1	72.66537843380365	35.38605956786944	63.84106118506873	0	0	0
319	1	1	73.13488696692565	35.363618412485394	62.95841848733048	0	0	0
320	1	1	73.60439550004764	36.11678883349953	62.4976625278085	0	0	0
321	1	1	74.07390403316964	36.09434767811548	61.61501983007025	0	0	0
322	1	1	74.54341256629164	36.847518099129616	61.15426387054827	0	0	0
323	1	1	75.01292109941363	36.82507694374557	60.27162117281002	0	0	0
324	1	1	75.48242963253563	37.578247364759704	59.81086521328804	0	0	0
325	1	1	75.95193816565762	37.55580620937566	58.92822251554979	0	0	0
326	1	1	76.42144669877962	38.30897663038979	58.46746655602781	0	0	0
327	1	1	76.89095523190161	38.28653547500575	57.58482385828956	0	0	0
328	1	1	77.36046376502361	39.03970589601988	57.12406789876758	0	0	0
329	1	1	77.8299722981456	39.01726474063584	56.24142520102933	0	0	0
330	1	1	78.2994808312676	39.77043516164997	55.78066924150735	0	0	0
331	1	1	78.7689893643896	39.74799400626593	54.8980265437691	0	0	0
332	1	1	79.23849789751159	40.50116442728006	54.437270584247116	0	0	0
333	1	1	79.70800643063359	40.478723271896015	53.55462788650887	0	0	0
334	1	1	80.17751496375558	41.23189369291015	53.093871926986886	0	0	0
335	1	1	80.64702349687758	41.209452537526104	52.21122922924864	0	0	0
336	1	1	81.11653202999958	41.96262295854024	51.750473269726655	0	0	0
337	1	1	81.58604056312157	41.94018180315619	50.86783057198841	0	0	0
338	1	1	82.05554909624357	42.693352224170326	50.407074612466424	0	0	0
339	1	1	82.52505762936556	42.67091106878628	49.524431914728176	0	0	0
340	1	1	82.99456616248756	43.424081489800415	49.06367595520619	0	0	0
341	1	1	83.46407469560955	43.40164033441637	48.181033257467945	0	0	0
342	1	1	83.93358322873155	44.1548107554305	47.72027729794596	0	0	0
343	1	1	52.65185832940282	18.296193488132896	93.79854336829563	0	0	0
344	1	1	53.296713682369806	17.54812549799094	93.95524645018874	0	0	0
345	1	1	53.94156903533679	17.30980035269072	94.6814438743562	0	0	0
346	1	1	54.586424388303776	16.561732362548764	94.83814695624932	0	0	0
347	1	1	55.23127974127076	16.32340721724854	95.56434438041678	0	0	0
348	1	1	55.876135094237746	15.575339227106586	95.7210474623099	0	0	0
349	1	1	56.52099044720473	15.337014081806362	96.44724488647736	0	0	0
350	1	1	57.16584580017172	14.588946091664408	96.60394796837048	0	0	0
351	1	1	57.8107011531387	14.350620946364185	97.33014539253794	0	0	0
352	1	1	58.45555650610569	13.60255295622223	97.48684847443106	0	0	0
353	1	1	59.10041185907267	13.364227810922007	98.21304589859852	0	0	0
354	1	1	59.74526721203966	12.616159820780052	98.36974898049164	0	0	0
355	1	1	60.39012256500664	12.377834675479829	99.0959464046591	0	0	0
356	1	1	61.03497791797363	11.629766685337874	99.25264948655222	0	0	0
357	1	1	61.67983327094061	11.39144154003765	99.97884691071968	0	0	0
358	1	1	62.3246886239076	10.643373549895696	100.1355499926128	0	0	0
359	1	1	62.96954397687458	10.405048404595473	100.86174741678026	0	0	0
360	1	1	63.61439932984157	9.656980414453518	101.01845049867337	0	0	0
361	1	1	64.25925468280855	9.418655269153295	101.74464792284084	0	0	0
362	1	1	64.90411003577553	8.67058727901134	101.90135100473395	0	0	0
363	1	1	65.54896538874252	8.432262133711117	102.62754842890142	0	0	0
364	1	1	66.1938207417095	7.684194143569161	102.78425151079453	0	0	0
365	1	1	66.83867609467649	7.445868998268938	103.510448934962	0	0	0
366	1	1	67.48353144764347	6.697801008126982	103.66715201685511	0	0	0
367	1	1	68.12838680061046	6.459475862826759	104.39334944102258	0	0	0
368	1	1	68.77324215357744	5.711407872684803	104.55005252291569	0	0	0
369	1	1	69.41809750654443	5.47308272738458	105.27624994708316	0	0	0
370	1	1	70.06295285951141	4.725014737242624	105.43295302897627	0	0	0
371	1	1	70.7078082124784	4.486689591942401	106.15915045314374	0	0	0
372	1	1	71.35266356544538	3.7386216018004457	106.31585353503685	0	0	0
373	1	1	71.99751891841237	3.500296456500222	107.04205095920432	0	0	0
374	1	1	72.64237427137935	2.752228466358267	107.19875404109743	0	0	0
375	1	1	73.28722962434634	2.5139033210580433	107.9249514652649	0	0	0
376	1	1	73.93208497731332	1.765835330916088	108.08165454715801	0	0	0
377	1	1	74.57694033028031	1.5275101856158646	108.80785197132548	0	0	0
378	1	1	75.2217956832473	0.7794421954739091	108.96455505321859	0	0	0
379	1	1	75.86665103621428	0.5411170501736857	109.69075247738606	0	0	0
380	1	1	76.51150638918126	-0.20695093996826974	109.84745555927917	0	0	0
381	1	1	77.15636174214825	-0.44527608526849316	110.57365298344664	0	0	0
382	1	1	77.80121709511523	-1.1933440754104487	110.73035606533975	0	0	0
383	1	1	78.44607244808222	-1.431669220710672	111.45655348950721	0	0	0
384	1	1	79.0909278010492	-2.1797372108526276	111.61325657140033	0	0	0
385	1	1	79.73578315401619	-2.418062356152851	112.3394539955678	0	0	0
386	1	1	80.38063850698317	-3.1661303462948065	112.49615707746091	0	0	0
387	1	1	81.02549385995016	-3.40445549159503	113.22235450162837	0	0	0
388	1	1	81.67034921291715	-4.152523481736986	113.37905758352149	0	0	0
389	1	1	82.31520456588413	-4.390848627037209	114.10525500768895	0	0	0
390	1	1	82.96005991885112	-5.138916617179165	114.26195808958207	0	0	0
391	1	1	83.6049152718181	-5.377241762479388	114.98815551374953	0	0	0
392	1	1	84.24977062478509	-6.125309752621344	115.14485859564265	0	0	0
393	1	1	84.89462597775207	-6.363634897921567	115.87105601981011	0	0	0
394	1	1	85.53948133071906	-7.1117028880635225	116.02775910170323	0	0	0
395	1	1	86.18433668368604	-7.3500280333637455	116.75395652587069	0	0	0
396	1	1	86.82919203665303	-8.0980960235057	116.9106596077638	0	0	0
397	1	1	87.47404738962001	-8.336421168805924	117.63685703193127	0	0	0
398	1	1	88.118902742587	-9.084489158947878	117.79356011382438	0	0	0
399	1	1	88.76375809555398	-9.322814304248102	118.51975753799185	0	0	0
400	1	1	89.40861344852097	-10.070882294390056	118.67646061988496	0	0	0
401	1	1	90.05346880148795	-10.30920743969028	119.40265804405243	0	0	0
402	1	1	90.69832415445494	-11.057275429832234	119.55936112594554	0	0	0
403	1	1	91.34317950742192	-11.295600575132458	120.28555855011301	0	0	0
404	1	1	91.98803486038891	-12.043668565274412	120.44226163200612	0	0	0
405	1	1	92.63289021335589	-12.281993710574636	121.16845905617359	0	0	0
406	1	1	93.27774556632288	-13.03006170071659	121.3251621380667	0	0	0
407	1	1	93.92260091928986	-13.268386846016814	122.05135956223417	0	0	0
408	1	1	94.56745627225685	-14.016454836158768	122.20806264412728	0	0	0
409	1	1	95.21231162522383	-14.254779981458992	122.93426006829475	0	0	0
410	1	1	95.85716697819082	-15.002847971600946	123.09096315018786	0	0	0
411	1	1	51.64743449563926	19.580202167517136	93.88895031282487	0	0	0
412	1	1	51.287866014842685	19.89891484013701	94.76595244505098	0	0	0
413	1	1	50.92829753404611	20.817777302127876	94.92844024016719	0	0	0
414	1	1	50.568729053249534	21.13648997474775	95.8054423723933	0	0	0
415	1	1	50.20916057245296	22.055352436738616	95.96793016750951	0	0	0
416	1	1	49.84959209165638	22.37406510935849	96.84493229973562	0	0	0
417	1	1	49.49002361085981	23.292927571349356	97.00742009485182	0	0	0
418	1	1	49.13045513006323	23.61164024396923	97.88442222707793	0	0	0
419	1	1	48.77088664926666	24.530502705960096	98.04691002219414	0	0	0
420	1	1	48.41131816847008	24.84921537857997	98.92391215442025	0	0	0
421	1	1	48.05174968767351	25.768077840570836	99.08639994953646	0	0	0
422	1	1	47.69218120687693	26.08679051319071	99.96340208176257	0	0	0
423	1	1	47.332612726080356	27.005652975181576	100.12588987687877	0	0	0
424	1	1	46.97304424528378	27.32436564780145	101.00289200910488	0	0	0
425	1	1	46.613475764487205	28.243228109792316	101.16537980422109	0	0	0
426	1	1	46.25390728369063	28.56194078241219	102.0423819364472	0	0	0
427	1	1	45.894338802894055	29.480803244403056	102.2048697315634	0	0	0
428	1	1	45.53477032209748	29.79951591702293	103.08187186378952	0	0	0
429	1	1	45.175201841300904	30.718378379013796	103.24435965890572	0	0	0
430	1	1	44.81563336050433	31.03709105163367	104.12136179113183	0	0	0
431	1	1	44.45606487970775	31.955953513624536	104.28384958624804	0	0	0
432	1	1	44.09649639891118	32.27466618624441	105.16085171847415	0	0	0
433	1	1	43.7369279181146	33.19352864823527	105.32333951359035	0	0	0
434	1	1	43.37735943731803	33.512241320855146	106.20034164581647	0	0	0
435	1	1	43.01779095652145	34.43110378284601	106.36282944093267	0	0	0
436	1	1	42.65822247572488	34.74981645546588	107.23983157315878	0	0	0
437	1	1	42.2986539949283	35.668678917456745	107.40231936827499	0	0	0
438	1	1	41.939085514131726	35.98739159007662	108.2793215005011	0	0	0
439	1	1	41.57951703333515	36.90625405206748	108.4418092956173	0	0	0
440	1	1	41.219948552538575	37.224966724687356	109.31881142784341	0	0	0
441	1	1	40.860380071742	38.14382918667822	109.48129922295962	0	0	0
442	1	1	40.500811590945425	38.46254185929809	110.35830135518573	0	0	0
443	1	1	40.14124311014885	39.381404321288954	110.52078915030194	0	0	0
444	1	1	39.781674629352274	39.70011699390883	111.39779128252805	0	0	0
445	1	1	39.4221061485557	40.61897945589969	111.56027907764425	0	0	0
446	1	1	39.06253766775912	40.937692128519565	112.43728120987036	0	0	0
447	1	1	38.70296918696255	41.85655459051043	112.59976900498657	0	0	0
448	1	1	38.34340070616597	42.1752672631303	113.47677113721268	0	0	0
449	1	1	37.9838322253694	43.094129725121164	113.63925893232889	0	0	0
450	1	1	37.62426374457282	43.41284239774104	114.516261064555	0	0	0
451	1	1	37.26469526377625	44.3317048597319	114.6787488596712	0	0	0
452	1	1	36.90512678297967	44.650417532351774	115.55575099189731	0	0	0