bb450nuc5bl75bn4d30tot1200

1201 atoms
1200 bonds
1214 angles

1 atom types
1 bond types
1 angle types

-1000 1000 xlo xhi
-1000 1000 ylo yhi
-1000 1000 zlo zhi

Masses

1 1

Atoms

1	1	1	0.0	0.0	0.0	0	0	0
2	1	1	0.0	0.0	1.0	0	0	0
3	1	1	0.0	-0.49999999999999994	1.8660254037844388	0	0	0
4	1	1	0.0	0.0	2.7320508075688776	0	0	0
5	1	1	0.0	-0.49999999999999994	3.5980762113533165	0	0	0
6	1	1	0.0	0.0	4.464101615137755	0	0	0
7	1	1	0.0	-0.49999999999999994	5.330127018922194	0	0	0
8	1	1	0.0	0.0	6.196152422706632	0	0	0
9	1	1	0.0	-0.49999999999999994	7.06217782649107	0	0	0
10	1	1	0.0	0.0	7.928203230275509	0	0	0
11	1	1	0.0	-0.49999999999999994	8.794228634059948	0	0	0
12	1	1	0.0	0.0	9.660254037844387	0	0	0
13	1	1	0.0	-0.49999999999999994	10.526279441628827	0	0	0
14	1	1	0.0	0.0	11.392304845413266	0	0	0
15	1	1	0.0	-0.49999999999999994	12.258330249197705	0	0	0
16	1	1	0.0	0.0	13.124355652982144	0	0	0
17	1	1	0.0	-0.49999999999999994	13.990381056766584	0	0	0
18	1	1	0.0	0.0	14.856406460551023	0	0	0
19	1	1	0.0	-0.49999999999999994	15.722431864335462	0	0	0
20	1	1	0.0	0.0	16.5884572681199	0	0	0
21	1	1	0.0	-0.49999999999999994	17.454482671904337	0	0	0
22	1	1	0.0	0.0	18.320508075688775	0	0	0
23	1	1	0.0	-0.49999999999999994	19.186533479473212	0	0	0
24	1	1	0.0	0.0	20.05255888325765	0	0	0
25	1	1	0.0	-0.49999999999999994	20.918584287042087	0	0	0
26	1	1	0.0	0.0	21.784609690826525	0	0	0
27	1	1	0.0	-0.49999999999999994	22.650635094610962	0	0	0
28	1	1	0.0	0.0	23.5166604983954	0	0	0
29	1	1	0.0	-0.49999999999999994	24.382685902179837	0	0	0
30	1	1	0.0	0.0	25.248711305964274	0	0	0
31	1	1	0.0	-0.49999999999999994	26.114736709748712	0	0	0
32	1	1	0.0	0.0	26.98076211353315	0	0	0
33	1	1	0.0	-0.49999999999999994	27.846787517317587	0	0	0
34	1	1	0.0	0.0	28.712812921102024	0	0	0
35	1	1	0.0	-0.49999999999999994	29.578838324886462	0	0	0
36	1	1	0.0	0.0	30.4448637286709	0	0	0
37	1	1	0.0	-0.49999999999999994	31.310889132455337	0	0	0
38	1	1	0.0	0.0	32.17691453623978	0	0	0
39	1	1	0.0	-0.49999999999999994	33.04293994002422	0	0	0
40	1	1	0.0	0.0	33.90896534380866	0	0	0
41	1	1	0.0	-0.49999999999999994	34.7749907475931	0	0	0
42	1	1	0.0	0.0	35.64101615137754	0	0	0
43	1	1	0.0	-0.49999999999999994	36.50704155516198	0	0	0
44	1	1	0.0	0.0	37.373066958946424	0	0	0
45	1	1	0.0	-0.49999999999999994	38.239092362730865	0	0	0
46	1	1	0.0	0.0	39.105117766515306	0	0	0
47	1	1	0.0	-0.49999999999999994	39.97114317029975	0	0	0
48	1	1	0.0	0.0	40.83716857408419	0	0	0
49	1	1	0.0	-0.49999999999999994	41.70319397786863	0	0	0
50	1	1	0.0	0.0	42.56921938165307	0	0	0
51	1	1	0.0	-0.49999999999999994	43.43524478543751	0	0	0
52	1	1	0.0	0.0	44.30127018922195	0	0	0
53	1	1	0.0	-0.49999999999999994	45.16729559300639	0	0	0
54	1	1	0.0	0.0	46.033320996790835	0	0	0
55	1	1	0.0	-0.49999999999999994	46.899346400575276	0	0	0
56	1	1	0.0	0.0	47.76537180435972	0	0	0
57	1	1	0.0	-0.49999999999999994	48.63139720814416	0	0	0
58	1	1	0.0	0.0	49.4974226119286	0	0	0
59	1	1	0.0	-0.49999999999999994	50.36344801571304	0	0	0
60	1	1	0.0	0.0	51.22947341949748	0	0	0
61	1	1	0.0	-0.49999999999999994	52.09549882328192	0	0	0
62	1	1	0.0	0.0	52.96152422706636	0	0	0
63	1	1	0.0	-0.49999999999999994	53.827549630850804	0	0	0
64	1	1	0.0	0.0	54.693575034635245	0	0	0
65	1	1	0.0	-0.49999999999999994	55.559600438419686	0	0	0
66	1	1	0.0	0.0	56.42562584220413	0	0	0
67	1	1	0.0	-0.49999999999999994	57.29165124598857	0	0	0
68	1	1	0.0	0.0	58.15767664977301	0	0	0
69	1	1	0.0	-0.49999999999999994	59.02370205355745	0	0	0
70	1	1	0.0	0.0	59.88972745734189	0	0	0
71	1	1	0.0	-0.49999999999999994	60.75575286112633	0	0	0
72	1	1	0.0	0.0	61.62177826491077	0	0	0
73	1	1	0.0	-0.49999999999999994	62.487803668695214	0	0	0
74	1	1	0.0	0.0	63.353829072479655	0	0	0
75	1	1	0.0	-0.49999999999999994	64.21985447626409	0	0	0
76	1	1	0.0	0.0	65.08587988004852	0	0	0
77	1	1	0.721412154320966	-0.3585517190350742	65.67833677162373	0	0	0
78	1	1	1.4428243086419346	-0.9652950620776396	66.0121436308575	0	0	0
79	1	1	2.1642364629629034	-0.979581513544986	66.70450220912633	0	0	0
80	1	1	2.8856486172838722	-1.5863248565875514	67.03830906836009	0	0	0
81	1	1	3.607060771604841	-1.6006113080548978	67.73066764662893	0	0	0
82	1	1	4.3284729259258095	-2.207354651097463	68.06447450586269	0	0	0
83	1	1	5.049885080246778	-2.2216411025648095	68.75683308413153	0	0	0
84	1	1	5.771297234567746	-2.828384445607375	69.09063994336529	0	0	0
85	1	1	6.492709388888715	-2.842670897074721	69.78299852163413	0	0	0
86	1	1	7.214121543209683	-3.4494142401172865	70.11680538086789	0	0	0
87	1	1	7.935533697530651	-3.463700691584633	70.80916395913673	0	0	0
88	1	1	8.65694585185162	-4.070444034627198	71.14297081837049	0	0	0
89	1	1	9.37835800617259	-4.084730486094545	71.83532939663932	0	0	0
90	1	1	10.09977016049356	-4.69147382913711	72.16913625587308	0	0	0
91	1	1	10.821182314814529	-4.705760280604457	72.86149483414192	0	0	0
92	1	1	11.542594469135498	-5.312503623647022	73.19530169337568	0	0	0
93	1	1	12.264006623456467	-5.326790075114369	73.88766027164452	0	0	0
94	1	1	12.985418777777436	-5.933533418156935	74.22146713087828	0	0	0
95	1	1	13.706830932098406	-5.947819869624281	74.91382570914712	0	0	0
96	1	1	14.428243086419375	-6.554563212666847	75.24763256838088	0	0	0
97	1	1	15.149655240740344	-6.568849664134193	75.93999114664972	0	0	0
98	1	1	15.871067395061313	-7.175593007176759	76.27379800588348	0	0	0
99	1	1	16.592479549382283	-7.189879458644105	76.96615658415232	0	0	0
100	1	1	17.313891703703252	-7.796622801686671	77.29996344338608	0	0	0
101	1	1	18.03530385802422	-7.810909253154017	77.99232202165491	0	0	0
102	1	1	18.75671601234519	-8.417652596196582	78.32612888088867	0	0	0
103	1	1	19.47812816666616	-8.431939047663928	79.01848745915751	0	0	0
104	1	1	20.19954032098713	-9.038682390706493	79.35229431839127	0	0	0
105	1	1	20.9209524753081	-9.05296884217384	80.04465289666011	0	0	0
106	1	1	21.642364629629068	-9.659712185216405	80.37845975589387	0	0	0
107	1	1	22.363776783950037	-9.673998636683752	81.07081833416271	0	0	0
108	1	1	23.085188938271006	-10.280741979726317	81.40462519339647	0	0	0
109	1	1	23.806601092591976	-10.295028431193664	82.09698377166531	0	0	0
110	1	1	24.528013246912945	-10.901771774236229	82.43079063089907	0	0	0
111	1	1	25.249425401233914	-10.916058225703576	83.1231492091679	0	0	0
112	1	1	25.970837555554883	-11.522801568746141	83.45695606840167	0	0	0
113	1	1	26.692249709875853	-11.537088020213488	84.1493146466705	0	0	0
114	1	1	27.413661864196822	-12.143831363256053	84.48312150590426	0	0	0
115	1	1	28.13507401851779	-12.1581178147234	85.1754800841731	0	0	0
116	1	1	28.85648617283876	-12.764861157765965	85.50928694340686	0	0	0
117	1	1	29.57789832715973	-12.779147609233313	86.2016455216757	0	0	0
118	1	1	30.2993104814807	-13.385890952275878	86.53545238090946	0	0	0
119	1	1	31.02072263580167	-13.400177403743225	87.2278109591783	0	0	0
120	1	1	31.742134790122638	-14.00692074678579	87.56161781841206	0	0	0
121	1	1	32.46354694444361	-14.021207198253137	88.2539763966809	0	0	0
122	1	1	33.18495909876457	-14.627950541295702	88.58778325591466	0	0	0
123	1	1	33.90637125308554	-14.64223699276305	89.2801418341835	0	0	0
124	1	1	34.627783407406504	-15.248980335805614	89.61394869341726	0	0	0
125	1	1	35.34919556172747	-15.263266787272961	90.3063072716861	0	0	0
126	1	1	36.070607716048436	-15.870010130315526	90.64011413091986	0	0	0
127	1	1	36.7920198703694	-15.884296581782873	91.33247270918869	0	0	0
128	1	1	37.51343202469037	-16.49103992482544	91.66627956842245	0	0	0
129	1	1	38.23484417901133	-16.505326376292786	92.35863814669129	0	0	0
130	1	1	38.9562563333323	-17.112069719335352	92.69244500592505	0	0	0
131	1	1	39.677668487653264	-17.126356170802698	93.38480358419389	0	0	0
132	1	1	40.39908064197423	-17.733099513845264	93.71861044342765	0	0	0
133	1	1	41.120492796295196	-17.74738596531261	94.41096902169649	0	0	0
134	1	1	41.84190495061616	-18.354129308355176	94.74477588093025	0	0	0
135	1	1	42.56331710493713	-18.368415759822522	95.43713445919909	0	0	0
136	1	1	43.28472925925809	-18.97515910286509	95.77094131843285	0	0	0
137	1	1	44.00614141357906	-18.989445554332434	96.46329989670168	0	0	0
138	1	1	44.727553567900024	-19.596188897375	96.79710675593545	0	0	0
139	1	1	45.44896572222099	-19.610475348842346	97.48946533420428	0	0	0
140	1	1	46.170377876541956	-20.217218691884913	97.82327219343804	0	0	0
141	1	1	46.89179003086292	-20.23150514335226	98.51563077170688	0	0	0
142	1	1	47.61320218518389	-20.838248486394825	98.84943763094064	0	0	0
143	1	1	48.33461433950485	-20.85253493786217	99.54179620920948	0	0	0
144	1	1	49.05602649382582	-21.459278280904737	99.87560306844324	0	0	0
145	1	1	49.777438648146784	-21.473564732372083	100.56796164671208	0	0	0
146	1	1	50.49885080246775	-22.08030807541465	100.90176850594584	0	0	0
147	1	1	51.220262956788716	-22.094594526881995	101.59412708421468	0	0	0
148	1	1	51.94167511110968	-22.70133786992456	101.92793394344844	0	0	0
149	1	1	52.66308726543065	-22.715624321391907	102.62029252171727	0	0	0
150	1	1	53.38449941975161	-23.322367664434474	102.95409938095104	0	0	0
151	1	1	54.10591157407258	-23.33665411590182	103.64645795921987	0	0	0
152	1	1	-0.8861612258124367	-0.11142811179787121	65.53565989046223	0	0	0
153	1	1	-1.7723224516248768	-0.4328176925174142	65.86946674969599	0	0	0
154	1	1	-2.658483677437317	-0.30442726282324994	66.31470172072763	0	0	0
155	1	1	-3.5446449032497567	-0.6258168435427929	66.64850857996139	0	0	0
156	1	1	-4.430806129062197	-0.4974264138486286	67.09374355099303	0	0	0
157	1	1	-5.316967354874637	-0.8188159945681717	67.42755041022679	0	0	0
158	1	1	-6.2031285806870775	-0.6904255648740074	67.87278538125842	0	0	0
159	1	1	-7.089289806499518	-1.0118151455935505	68.20659224049218	0	0	0
160	1	1	-7.975451032311958	-0.8834247158993862	68.65182721152382	0	0	0
161	1	1	-8.861612258124397	-1.2048142966189292	68.98563407075758	0	0	0
162	1	1	-9.747773483936838	-1.076423866924765	69.43086904178922	0	0	0
163	1	1	-10.633934709749278	-1.397813447644308	69.76467590102298	0	0	0
164	1	1	-11.520095935561718	-1.2694230179501438	70.20991087205462	0	0	0
165	1	1	-12.406257161374159	-1.5908125986696868	70.54371773128838	0	0	0
166	1	1	-13.292418387186599	-1.4624221689755226	70.98895270232002	0	0	0
167	1	1	-14.17857961299904	-1.7838117496950656	71.32275956155378	0	0	0
168	1	1	-15.06474083881148	-1.6554213200009014	71.76799453258542	0	0	0
169	1	1	-15.95090206462392	-1.9768109007204444	72.10180139181918	0	0	0
170	1	1	-16.837063290436358	-1.8484204710262802	72.54703636285082	0	0	0
171	1	1	-17.7232245162488	-2.169810051745823	72.88084322208458	0	0	0
172	1	1	-18.60938574206124	-2.041419622051659	73.32607819311622	0	0	0
173	1	1	-19.49554696787368	-2.362809202771202	73.65988505234998	0	0	0
174	1	1	-20.38170819368612	-2.2344187730770377	74.10512002338162	0	0	0
175	1	1	-21.26786941949856	-2.555808353796581	74.43892688261538	0	0	0
176	1	1	-22.154030645311	-2.4274179241024165	74.88416185364702	0	0	0
177	1	1	-23.04019187112344	-2.7488075048219596	75.21796871288078	0	0	0
178	1	1	-23.92635309693588	-2.6204170751277953	75.66320368391241	0	0	0
179	1	1	-24.81251432274832	-2.9418066558473384	75.99701054314617	0	0	0
180	1	1	-25.69867554856076	-2.813416226153174	76.44224551417781	0	0	0
181	1	1	-26.5848367743732	-3.134805806872717	76.77605237341157	0	0	0
182	1	1	-27.47099800018564	-3.006415377178553	77.22128734444321	0	0	0
183	1	1	-28.357159225998082	-3.327804957898096	77.55509420367697	0	0	0
184	1	1	-29.243320451810522	-3.1994145282039317	78.00032917470861	0	0	0
185	1	1	-30.129481677622962	-3.5208041089234747	78.33413603394237	0	0	0
186	1	1	-31.015642903435403	-3.3924136792293105	78.77937100497401	0	0	0
187	1	1	-31.901804129247843	-3.7138032599488535	79.11317786420777	0	0	0
188	1	1	-32.78796535506028	-3.5854128302546893	79.55841283523941	0	0	0
189	1	1	-33.674126580872716	-3.9068024109742323	79.89221969447317	0	0	0
190	1	1	-34.56028780668515	-3.778411981280068	80.33745466550481	0	0	0
191	1	1	-35.44644903249759	-4.099801561999611	80.67126152473857	0	0	0
192	1	1	-36.33261025831003	-3.9714111323054464	81.1164964957702	0	0	0
193	1	1	-37.21877148412246	-4.292800713024989	81.45030335500397	0	0	0
194	1	1	-38.1049327099349	-4.164410283330825	81.8955383260356	0	0	0
195	1	1	-38.99109393574734	-4.485799864050367	82.22934518526937	0	0	0
196	1	1	-39.87725516155977	-4.357409434356203	82.674580156301	0	0	0
197	1	1	-40.76341638737221	-4.678799015075746	83.00838701553477	0	0	0
198	1	1	-41.64957761318465	-4.550408585381581	83.4536219865664	0	0	0
199	1	1	-42.535738838997084	-4.871798166101124	83.78742884580016	0	0	0
200	1	1	-43.42190006480952	-4.74340773640696	84.2326638168318	0	0	0
201	1	1	-44.30806129062196	-5.064797317126502	84.56647067606556	0	0	0
202	1	1	-45.194222516434394	-4.936406887432338	85.0117056470972	0	0	0
203	1	1	-46.08038374224683	-5.257796468151881	85.34551250633096	0	0	0
204	1	1	-46.96654496805927	-5.1294060384577165	85.7907474773626	0	0	0
205	1	1	-47.852706193871704	-5.450795619177259	86.12455433659636	0	0	0
206	1	1	-48.73886741968414	-5.322405189483095	86.569789307628	0	0	0
207	1	1	-49.62502864549658	-5.643794770202637	86.90359616686176	0	0	0
208	1	1	-50.511189871309014	-5.515404340508473	87.3488311378934	0	0	0
209	1	1	-51.39735109712145	-5.836793921228016	87.68263799712716	0	0	0
210	1	1	-52.28351232293389	-5.7084034915338515	88.1278729681588	0	0	0
211	1	1	-53.169673548746324	-6.029793072253394	88.46167982739256	0	0	0
212	1	1	-54.05583477455876	-5.90140264255923	88.9069147984242	0	0	0
213	1	1	-54.9419960003712	-6.2227922232787725	89.24072165765796	0	0	0
214	1	1	-55.828157226183635	-6.094401793584608	89.6859566286896	0	0	0
215	1	1	-56.71431845199607	-6.415791374304151	90.01976348792336	0	0	0
216	1	1	-57.60047967780851	-6.2874009446099866	90.464998458955	0	0	0
217	1	1	-58.486640903620945	-6.608790525329529	90.79880531818876	0	0	0
218	1	1	-59.37280212943338	-6.480400095635365	91.2440402892204	0	0	0
219	1	1	-60.25896335524582	-6.8017896763549075	91.57784714845415	0	0	0
220	1	1	-61.145124581058255	-6.673399246660743	92.02308211948579	0	0	0
221	1	1	-62.03128580687069	-6.994788827380286	92.35688897871955	0	0	0
222	1	1	-62.91744703268313	-6.866398397686122	92.80212394975119	0	0	0
223	1	1	-63.803608258495565	-7.187787978405664	93.13593080898495	0	0	0
224	1	1	-64.689769484308	-7.0593975487115	93.58116578001659	0	0	0
225	1	1	-65.57593071012045	-7.3807871294310425	93.91497263925035	0	0	0
226	1	1	-66.46209193593289	-7.252396699736878	94.36020761028199	0	0	0
227	1	1	0.16474907149145673	0.9706901196835864	64.91089863822141	0	0	0
228	1	1	0.329498142982914	1.898823043445692	65.24470549745517	0	0	0
229	1	1	0.49424721447437137	2.6519747253806782	64.60782223700534	0	0	0
230	1	1	0.6589962859658287	3.580107649142784	64.9416290962391	0	0	0
231	1	1	0.823745357457286	4.3332593310777705	64.30474583578926	0	0	0
232	1	1	0.9884944289487434	5.261392254839876	64.63855269502302	0	0	0
233	1	1	1.1532435004402006	6.014543936774863	64.00166943457319	0	0	0
234	1	1	1.3179925719316579	6.942676860536968	64.33547629380695	0	0	0
235	1	1	1.482741643423115	7.695828542471955	63.69859303335712	0	0	0
236	1	1	1.6474907149145723	8.62396146623406	64.03239989259089	0	0	0
237	1	1	1.8122397864060296	9.377113148169046	63.39551663214106	0	0	0
238	1	1	1.9769888578974868	10.305246071931153	63.72932349137482	0	0	0
239	1	1	2.141737929388944	11.058397753866139	63.09244023092499	0	0	0
240	1	1	2.3064870008804013	11.986530677628245	63.42624709015875	0	0	0
241	1	1	2.4712360723718585	12.739682359563231	62.789363829708925	0	0	0
242	1	1	2.6359851438633157	13.667815283325337	63.123170688942686	0	0	0
243	1	1	2.800734215354773	14.420966965260323	62.48628742849286	0	0	0
244	1	1	2.96548328684623	15.34909988902243	62.82009428772662	0	0	0
245	1	1	3.1302323583376874	16.102251570957417	62.18321102727679	0	0	0
246	1	1	3.2949814298291447	17.030384494719524	62.51701788651055	0	0	0
247	1	1	3.459730501320602	17.78353617665451	61.88013462606072	0	0	0
248	1	1	3.624479572812059	18.711669100416618	62.213941485294484	0	0	0
249	1	1	3.7892286443035164	19.464820782351605	61.577058224844656	0	0	0
250	1	1	3.9539777157949736	20.392953706113712	61.91086508407842	0	0	0
251	1	1	4.118726787286431	21.1461053880487	61.27398182362859	0	0	0
252	1	1	4.283475858777889	22.074238311810806	61.60778868286235	0	0	0
253	1	1	4.448224930269347	22.827389993745793	60.97090542241252	0	0	0
254	1	1	4.612974001760804	23.7555229175079	61.30471228164628	0	0	0
255	1	1	4.777723073252262	24.508674599442887	60.667829021196454	0	0	0
256	1	1	4.94247214474372	25.436807523204994	61.001635880430214	0	0	0
257	1	1	5.107221216235177	26.18995920513998	60.364752619980386	0	0	0
258	1	1	5.271970287726635	27.118092128902088	60.69855947921415	0	0	0
259	1	1	5.436719359218093	27.871243810837075	60.06167621876432	0	0	0
260	1	1	5.60146843070955	28.799376734599182	60.39548307799808	0	0	0
261	1	1	5.766217502201008	29.55252841653417	59.75859981754825	0	0	0
262	1	1	5.930966573692466	30.480661340296276	60.09240667678201	0	0	0
263	1	1	6.095715645183923	31.233813022231264	59.455523416332184	0	0	0
264	1	1	6.260464716675381	32.16194594599337	59.789330275565945	0	0	0
265	1	1	6.425213788166839	32.915097627928354	59.15244701511612	0	0	0
266	1	1	6.589962859658296	33.84323055169046	59.48625387434988	0	0	0
267	1	1	6.754711931149754	34.59638223362545	58.84937061390005	0	0	0
268	1	1	6.919461002641212	35.524515157387555	59.18317747313381	0	0	0
269	1	1	7.0842100741326695	36.27766683932254	58.54629421268398	0	0	0
270	1	1	7.248959145624127	37.20579976308465	58.88010107191774	0	0	0
271	1	1	7.413708217115585	37.958951445019636	58.243217811467915	0	0	0
272	1	1	7.5784572886070425	38.88708436878174	58.577024670701675	0	0	0
273	1	1	7.7432063600985	39.64023605071673	57.94014141025185	0	0	0
274	1	1	7.907955431589958	40.56836897447884	58.27394826948561	0	0	0
275	1	1	8.072704503081415	41.321520656413824	57.63706500903578	0	0	0
276	1	1	8.237453574572871	42.24965358017593	57.97087186826954	0	0	0
277	1	1	8.402202646064328	43.00280526211092	57.33398860781971	0	0	0
278	1	1	8.566951717555785	43.930938185873025	57.66779546705347	0	0	0
279	1	1	8.731700789047242	44.68408986780801	57.030912206603645	0	0	0
280	1	1	8.896449860538699	45.61222279157012	57.364719065837406	0	0	0
281	1	1	9.061198932030155	46.365374473505106	56.72783580538758	0	0	0
282	1	1	9.225948003521612	47.29350739726721	57.06164266462134	0	0	0
283	1	1	9.390697075013069	48.0466590792022	56.42475940417151	0	0	0
284	1	1	9.555446146504526	48.97479200296431	56.75856626340527	0	0	0
285	1	1	9.720195217995983	49.727943684899294	56.12168300295544	0	0	0
286	1	1	9.88494428948744	50.6560766086614	56.455489862189204	0	0	0
287	1	1	10.049693360978896	51.40922829059639	55.818606601739376	0	0	0
288	1	1	10.214442432470353	52.337361214358495	56.152413460973136	0	0	0
289	1	1	10.37919150396181	53.09051289629348	55.51553020052331	0	0	0
290	1	1	10.543940575453266	54.01864582005559	55.84933705975707	0	0	0
291	1	1	10.708689646944723	54.77179750199058	55.21245379930724	0	0	0
292	1	1	10.87343871843618	55.69993042575268	55.546260658541	0	0	0
293	1	1	11.038187789927637	56.45308210768767	54.90937739809117	0	0	0
294	1	1	11.202936861419094	57.38121503144978	55.243184257324934	0	0	0
295	1	1	11.36768593291055	58.134366713384765	54.606300996875106	0	0	0
296	1	1	11.532435004402007	59.06249963714687	54.94010785610887	0	0	0
297	1	1	11.697184075893464	59.81565131908186	54.30322459565904	0	0	0
298	1	1	11.86193314738492	60.743784242843965	54.6370314548928	0	0	0
299	1	1	12.026682218876378	61.49693592477895	54.00014819444297	0	0	0
300	1	1	12.191431290367834	62.42506884854106	54.33395505367673	0	0	0
301	1	1	12.356180361859291	63.17822053047605	53.697071793226904	0	0	0
302	1	1	11.702286773147723	63.126197010970834	52.94227597443867	0	0	0
303	1	1	11.048393184436154	63.45854123087916	52.262591860945186	0	0	0
304	1	1	10.394499595724586	63.03608963199926	51.634931266956904	0	0	0
305	1	1	9.740606007013017	63.36843385190759	50.95524715346342	0	0	0
306	1	1	9.086712418301449	62.94598225302769	50.32758655947514	0	0	0
307	1	1	8.43281882958988	63.278326472936016	49.64790244598165	0	0	0
308	1	1	7.778925240878312	62.85587487405611	49.02024185199337	0	0	0
309	1	1	7.125031652166744	63.18821909396444	48.34055773849988	0	0	0
310	1	1	6.471138063455175	62.76576749508454	47.7128971445116	0	0	0
311	1	1	5.817244474743607	63.09811171499287	47.033213031018114	0	0	0
312	1	1	5.163350886032038	62.675660116112965	46.40555243702983	0	0	0
313	1	1	4.50945729732047	63.008004336021294	45.725868323536346	0	0	0
314	1	1	3.8555637086089014	62.58555273714139	45.098207729548065	0	0	0
315	1	1	3.201670119897333	62.91789695704972	44.41852361605458	0	0	0
316	1	1	2.5477765311857645	62.49544535816982	43.7908630220663	0	0	0
317	1	1	1.893882942474196	62.827789578078146	43.11117890857281	0	0	0
318	1	1	1.2399893537626276	62.405337979198244	42.48351831458453	0	0	0
319	1	1	0.5860957650510592	62.73768219910657	41.80383420109104	0	0	0
320	1	1	-0.06779782366050924	62.31523060022667	41.17617360710276	0	0	0
321	1	1	-0.7216914123720777	62.647574820135	40.496489493609275	0	0	0
322	1	1	-1.3755850010836461	62.225123221255096	39.86882889962099	0	0	0
323	1	1	-2.0294785897952146	62.557467441163425	39.18914478612751	0	0	0
324	1	1	-2.683372178506783	62.13501584228352	38.561484192139226	0	0	0
325	1	1	-3.3372657672183514	62.46736006219185	37.88180007864574	0	0	0
326	1	1	-3.99115935592992	62.04490846331195	37.25413948465746	0	0	0
327	1	1	-4.645052944641488	62.37725268322028	36.57445537116397	0	0	0
328	1	1	-5.298946533353057	61.954801084340374	35.94679477717569	0	0	0
329	1	1	-5.952840122064625	62.2871453042487	35.2671106636822	0	0	0
330	1	1	-6.606733710776194	61.8646937053688	34.63945006969392	0	0	0
331	1	1	-7.260627299487762	62.19703792527713	33.959765956200435	0	0	0
332	1	1	-7.9145208881993305	61.77458632639723	33.332105362212154	0	0	0
333	1	1	-8.568414476910899	62.106930546305556	32.65242124871867	0	0	0
334	1	1	-9.222308065622467	61.68447894742565	32.024760654730386	0	0	0
335	1	1	-9.876201654334036	62.01682316733398	31.345076541236896	0	0	0
336	1	1	-10.530095243045604	61.59437156845408	30.717415947248618	0	0	0
337	1	1	-11.183988831757173	61.92671578836241	30.037731833755128	0	0	0
338	1	1	-11.837882420468741	61.504264189482505	29.41007123976685	0	0	0
339	1	1	-12.49177600918031	61.836608409390834	28.73038712627336	0	0	0
340	1	1	-13.145669597891878	61.41415681051093	28.102726532285082	0	0	0
341	1	1	-13.799563186603446	61.74650103041926	27.423042418791592	0	0	0
342	1	1	-14.453456775315015	61.32404943153936	26.795381824803314	0	0	0
343	1	1	-15.107350364026583	61.65639365144769	26.115697711309824	0	0	0
344	1	1	-15.761243952738152	61.233942052567784	25.488037117321547	0	0	0
345	1	1	-16.41513754144972	61.56628627247611	24.808353003828056	0	0	0
346	1	1	-17.06903113016129	61.14383467359621	24.18069240983978	0	0	0
347	1	1	-17.722924718872857	61.47617889350454	23.50100829634629	0	0	0
348	1	1	-18.376818307584426	61.053727294624636	22.87334770235801	0	0	0
349	1	1	-19.030711896295994	61.386071514532965	22.19366358886452	0	0	0
350	1	1	-19.684605485007562	60.96361991565306	21.566002994876243	0	0	0
351	1	1	-20.33849907371913	61.29596413556139	20.886318881382753	0	0	0
352	1	1	-20.9923926624307	60.87351253668149	20.258658287394475	0	0	0
353	1	1	-21.646286251142268	61.20585675658982	19.578974173900985	0	0	0
354	1	1	-22.300179839853836	60.783405157709915	18.951313579912707	0	0	0
355	1	1	-22.954073428565405	61.11574937761824	18.271629466419217	0	0	0
356	1	1	-23.607967017276973	60.69329777873834	17.64396887243094	0	0	0
357	1	1	-24.26186060598854	61.02564199864667	16.96428475893745	0	0	0
358	1	1	-24.91575419470011	60.60319039976677	16.33662416494917	0	0	0
359	1	1	-25.56964778341168	60.935534619675096	15.656940051455681	0	0	0
360	1	1	-26.223541372123247	60.51308302079519	15.029279457467402	0	0	0
361	1	1	-26.877434960834815	60.84542724070352	14.349595343973911	0	0	0
362	1	1	-27.531328549546384	60.42297564182362	13.721934749985632	0	0	0
363	1	1	-28.185222138257952	60.75531986173195	13.042250636492142	0	0	0
364	1	1	-28.83911572696952	60.332868262852045	12.414590042503862	0	0	0
365	1	1	-29.49300931568109	60.665212482760374	11.734905929010372	0	0	0
366	1	1	-30.146902904392658	60.24276088388047	11.107245335022093	0	0	0
367	1	1	-30.800796493104226	60.5751051037888	10.427561221528602	0	0	0
368	1	1	-31.454690081815794	60.1526535049089	9.799900627540323	0	0	0
369	1	1	-32.108583670527366	60.48499772481723	9.120216514046833	0	0	0
370	1	1	-32.762477259238935	60.062546125937324	8.492555920058553	0	0	0
371	1	1	-33.4163708479505	60.39489034584565	7.812871806565063	0	0	0
372	1	1	-34.07026443666207	59.97243874696575	7.1852112125767835	0	0	0
373	1	1	-34.72415802537364	60.30478296687408	6.505527099083293	0	0	0
374	1	1	-35.37805161408521	59.882331367994176	5.877866505095014	0	0	0
375	1	1	-36.03194520279678	60.214675587902505	5.198182391601524	0	0	0
376	1	1	-36.685838791508345	59.7922239890226	4.570521797613244	0	0	0
377	1	1	13.286627084698793	63.112991532852384	53.33649714932325	0	0	0
378	1	1	14.217073807538295	63.23678888579872	52.99161584893033	0	0	0
379	1	1	15.147520530377797	63.0000115948414	52.71196354616107	0	0	0
380	1	1	16.0779672532173	63.12380894778774	52.36708224576815	0	0	0
381	1	1	17.0084139760568	62.88703165683042	52.087429942998895	0	0	0
382	1	1	17.938860698896303	63.01082900977676	51.742548642605975	0	0	0
383	1	1	18.869307421735805	62.77405171881944	51.46289633983672	0	0	0
384	1	1	19.799754144575306	62.897849071765776	51.1180150394438	0	0	0
385	1	1	20.73020086741481	62.66107178080846	50.83836273667454	0	0	0
386	1	1	21.66064759025431	62.784869133754796	50.49348143628162	0	0	0
387	1	1	22.591094313093812	62.54809184279748	50.21382913351236	0	0	0
388	1	1	23.521541035933314	62.671889195743816	49.86894783311944	0	0	0
389	1	1	24.451987758772816	62.4351119047865	49.589295530350185	0	0	0
390	1	1	25.382434481612318	62.558909257732836	49.244414229957265	0	0	0
391	1	1	26.31288120445182	62.32213196677552	48.96476192718801	0	0	0
392	1	1	27.243327927291322	62.445929319721856	48.61988062679509	0	0	0
393	1	1	28.173774650130824	62.20915202876454	48.34022832402583	0	0	0
394	1	1	29.104221372970326	62.332949381710876	47.99534702363291	0	0	0
395	1	1	30.034668095809828	62.09617209075356	47.71569472086365	0	0	0
396	1	1	30.96511481864933	62.219969443699895	47.37081342047073	0	0	0
397	1	1	31.89556154148883	61.98319215274258	47.091161117701475	0	0	0
398	1	1	32.82600826432833	62.106989505688915	46.746279817308555	0	0	0
399	1	1	33.75645498716783	61.8702122147316	46.4666275145393	0	0	0
400	1	1	34.68690171000733	61.994009567677935	46.12174621414638	0	0	0
401	1	1	35.617348432846825	61.75723227672062	45.84209391137712	0	0	0
402	1	1	36.54779515568632	61.881029629666955	45.4972126109842	0	0	0
403	1	1	37.47824187852582	61.64425233870964	45.21756030821494	0	0	0
404	1	1	38.40868860136532	61.768049691655975	44.87267900782202	0	0	0
405	1	1	39.33913532420482	61.53127240069866	44.593026705052765	0	0	0
406	1	1	40.26958204704432	61.655069753644995	44.248145404659844	0	0	0
407	1	1	41.200028769883815	61.41829246268768	43.96849310189059	0	0	0
408	1	1	42.13047549272331	61.542089815634014	43.62361180149767	0	0	0
409	1	1	43.06092221556281	61.3053125246767	43.34395949872841	0	0	0
410	1	1	43.99136893840231	61.429109877623034	42.99907819833549	0	0	0
411	1	1	44.92181566124181	61.19233258666572	42.71942589556623	0	0	0
412	1	1	45.85226238408131	61.316129939612054	42.37454459517331	0	0	0
413	1	1	46.782709106920805	61.07935264865474	42.094892292404055	0	0	0
414	1	1	47.713155829760304	61.203150001601074	41.750010992011134	0	0	0
415	1	1	48.6436025525998	60.96637271064376	41.47035868924188	0	0	0
416	1	1	49.5740492754393	61.090170063590094	41.12547738884896	0	0	0
417	1	1	50.5044959982788	60.85339277263278	40.8458250860797	0	0	0
418	1	1	51.4349427211183	60.977190125579114	40.50094378568678	0	0	0
419	1	1	52.365389443957795	60.7404128346218	40.22129148291752	0	0	0
420	1	1	53.295836166797294	60.86421018756813	39.8764101825246	0	0	0
421	1	1	54.22628288963679	60.62743289661082	39.596757879755344	0	0	0
422	1	1	55.15672961247629	60.75123024955715	39.251876579362424	0	0	0
423	1	1	56.08717633531579	60.51445295859984	38.97222427659317	0	0	0
424	1	1	57.01762305815529	60.63825031154617	38.62734297620025	0	0	0
425	1	1	57.948069780994786	60.40147302058886	38.34769067343099	0	0	0
426	1	1	58.878516503834284	60.52527037353519	38.00280937303807	0	0	0
427	1	1	59.80896322667378	60.28849308257788	37.72315707026881	0	0	0
428	1	1	60.73940994951328	60.41229043552421	37.37827576987589	0	0	0
429	1	1	61.66985667235278	60.1755131445669	37.098623467106634	0	0	0
430	1	1	62.60030339519228	60.29931049751323	36.753742166713714	0	0	0
431	1	1	63.530750118031776	60.06253320655592	36.47408986394446	0	0	0
432	1	1	64.46119684087128	60.18633055950225	36.129208563551536	0	0	0
433	1	1	65.39164356371079	59.94955326854494	35.84955626078228	0	0	0
434	1	1	66.32209028655029	60.07335062149127	35.50467496038936	0	0	0
435	1	1	67.2525370093898	59.83657333053396	35.2250226576201	0	0	0
436	1	1	68.1829837322293	59.96037068348029	34.88014135722718	0	0	0
437	1	1	69.11343045506881	59.72359339252298	34.600489054457924	0	0	0
438	1	1	70.04387717790831	59.84739074546931	34.255607754065004	0	0	0
439	1	1	70.97432390074782	59.610613454512	33.97595545129575	0	0	0
440	1	1	71.90477062358732	59.73441080745833	33.631074150902826	0	0	0
441	1	1	72.83521734642683	59.49763351650102	33.35142184813357	0	0	0
442	1	1	73.76566406926634	59.62143086944735	33.00654054774065	0	0	0
443	1	1	74.69611079210584	59.38465357849004	32.72688824497139	0	0	0
444	1	1	75.62655751494535	59.50845093143637	32.38200694457847	0	0	0
445	1	1	76.55700423778485	59.27167364047906	32.102354641809214	0	0	0
446	1	1	77.48745096062436	59.39547099342539	31.75747334141629	0	0	0
447	1	1	78.41789768346386	59.15869370246808	31.477821038647033	0	0	0
448	1	1	79.34834440630337	59.28249105541441	31.13293973825411	0	0	0
449	1	1	80.27879112914287	59.0457137644571	30.85328743548485	0	0	0
450	1	1	81.20923785198238	59.16951111740343	30.508406135091928	0	0	0
451	1	1	82.13968457482189	58.93273382644612	30.22875383232267	0	0	0
452	1	1	12.244610338080086	64.04969464002498	54.17465425331082	0	0	0
453	1	1	12.133040314300882	64.56562212759282	55.023989850919826	0	0	0