bb75nuc5bl12bn4d30tot200

193 atoms
192 bonds
206 angles

1 atom types
1 bond types
1 angle types

-1000 1000 xlo xhi
-1000 1000 ylo yhi
-1000 1000 zlo zhi

Masses

1 1

Atoms

1	1	1	0.0	0.0	0.0	0	0	0
2	1	1	0.0	0.0	1.0	0	0	0
3	1	1	0.0	-0.49999999999999994	1.8660254037844388	0	0	0
4	1	1	0.0	0.0	2.7320508075688776	0	0	0
5	1	1	0.0	-0.49999999999999994	3.5980762113533165	0	0	0
6	1	1	0.0	0.0	4.464101615137755	0	0	0
7	1	1	0.0	-0.49999999999999994	5.330127018922194	0	0	0
8	1	1	0.0	0.0	6.196152422706632	0	0	0
9	1	1	0.0	-0.49999999999999994	7.06217782649107	0	0	0
10	1	1	0.0	0.0	7.928203230275509	0	0	0
11	1	1	0.0	-0.49999999999999994	8.794228634059948	0	0	0
12	1	1	0.0	0.0	9.660254037844387	0	0	0
13	1	1	0.0	-0.49999999999999994	10.526279441628827	0	0	0
14	1	1	-0.0034549619636498182	0.1494425650292182	11.28668224144357	0	0	0
15	1	1	-0.006909923927299635	0.33167492473607674	12.26993166570656	0	0	0
16	1	1	-0.01036488589094945	1.274310084257678	12.603738524940331	0	0	0
17	1	1	-0.013819847854599266	1.4565424439645365	13.586987949203321	0	0	0
18	1	1	-0.01727480981824908	2.399177603486138	13.920794808437092	0	0	0
19	1	1	-0.020729771781898897	2.5814099631929963	14.904044232700082	0	0	0
20	1	1	-0.024184733745548713	3.5240451227145977	15.237851091933853	0	0	0
21	1	1	-0.02763969570919853	3.706277482421456	16.22110051619684	0	0	0
22	1	1	-0.031094657672848344	4.648912641943058	16.554907375430613	0	0	0
23	1	1	-0.03454961963649816	4.831145001649917	17.538156799693603	0	0	0
24	1	1	-0.03800458160014798	5.773780161171518	17.871963658927374	0	0	0
25	1	1	-0.0414595435637978	5.956012520878377	18.855213083190364	0	0	0
26	1	1	0.8180734756279286	-1.0724852054672012	10.581201914217184	0	0	0
27	1	1	1.6361469512558569	-1.59573317298673	10.342523567983756	0	0	0
28	1	1	2.4542204268837846	-2.064058667917901	10.676330427217527	0	0	0
29	1	1	3.272293902511713	-2.5873066354374297	10.4376520809841	0	0	0
30	1	1	4.090367378139641	-3.055632130368601	10.77145894021787	0	0	0
31	1	1	4.908440853767569	-3.5788800978881294	10.532780593984443	0	0	0
32	1	1	5.726514329395497	-4.047205592819301	10.866587453218214	0	0	0
33	1	1	6.544587805023426	-4.57045356033883	10.627909106984786	0	0	0
34	1	1	7.362661280651354	-5.038779055270002	10.961715966218557	0	0	0
35	1	1	8.180734756279282	-5.562027022789531	10.72303761998513	0	0	0
36	1	1	8.99880823190721	-6.0303525177207025	11.056844479218901	0	0	0
37	1	1	9.816881707535138	-6.553600485240231	10.818166132985473	0	0	0
38	1	1	-0.81461851366428	-1.0776676484126746	10.578209829387555	0	0	0
39	1	1	-1.6292370273285592	-1.603907700761832	10.334349040208654	0	0	0
40	1	1	-2.443855540992838	-2.0782173653522613	10.668155899442425	0	0	0
41	1	1	-3.2584740546571176	-2.604457417701419	10.424295110263524	0	0	0
42	1	1	-4.073092568321397	-3.078767082291848	10.758101969497297	0	0	0
43	1	1	-4.887711081985676	-3.6050071346410055	10.514241180318395	0	0	0
44	1	1	-5.702329595649956	-4.079316799231434	10.848048039552168	0	0	0
45	1	1	-6.516948109314235	-4.605556851580592	10.604187250373267	0	0	0
46	1	1	-7.331566622978515	-5.079866516171021	10.93799410960704	0	0	0
47	1	1	-8.146185136642794	-5.606106568520178	10.694133320428138	0	0	0
48	1	1	-8.960803650307072	-6.080416233110607	11.027940179661911	0	0	0
49	1	1	-9.775422163971351	-6.606656285459764	10.78407939048301	0	0	0
50	1	1	-9.973276856250006	-6.4840290638612395	9.811548627336494	0	0	0
51	1	1	-10.171131548528662	-5.891565393188155	9.030625891289006	0	0	0
52	1	1	-10.368986240807317	-6.271632485661586	8.127075933642994	0	0	0
53	1	1	-10.566840933085972	-5.679168814988501	7.346153197595506	0	0	0
54	1	1	-10.764695625364627	-6.059235907461932	6.442603239949494	0	0	0
55	1	1	-10.962550317643283	-5.466772236788848	5.661680503902007	0	0	0
56	1	1	-11.160405009921938	-5.846839329262279	4.758130546255995	0	0	0
57	1	1	-11.358259702200593	-5.254375658589194	3.9772078102085073	0	0	0
58	1	1	-11.556114394479248	-5.634442751062625	3.073657852562495	0	0	0
59	1	1	-11.753969086757904	-5.041979080389541	2.292735116515008	0	0	0
60	1	1	-11.951823779036559	-5.422046172862972	1.3891851588689956	0	0	0
61	1	1	-12.149678471315214	-4.829582502189887	0.6082624228215083	0	0	0
62	1	1	-10.553498786956286	-6.2871472447744345	11.324922012402453	0	0	0
63	1	1	-11.331575409941221	-6.280865609761865	11.95305998277674	0	0	0
64	1	1	-12.109652032926157	-5.733741352829853	12.261688912465695	0	0	0
65	1	1	-12.887728655911092	-5.7274597178172835	12.88982688283998	0	0	0
66	1	1	-13.665805278896027	-5.180335460885271	13.198455812528936	0	0	0
67	1	1	-14.443881901880962	-5.174053825872702	13.82659378290322	0	0	0
68	1	1	-15.221958524865897	-4.626929568940689	14.135222712592176	0	0	0
69	1	1	-16.000035147850834	-4.62064793392812	14.76336068296646	0	0	0
70	1	1	-16.77811177083577	-4.073523676996107	15.071989612655416	0	0	0
71	1	1	-17.556188393820708	-4.067242041983538	15.700127583029701	0	0	0
72	1	1	-18.334265016805645	-3.5201177850515246	16.00875651271866	0	0	0
73	1	1	-19.112341639790582	-3.513836150038955	16.636894483092945	0	0	0
74	1	1	-9.615266591267629	-7.575780164976679	10.97156031933185	0	0	0
75	1	1	-9.455111018563905	-8.508806528476878	10.64936162668159	0	0	0
76	1	1	-9.29495544586018	-9.254351963128238	11.296286813548246	0	0	0
77	1	1	-9.134799873156457	-10.187378326628437	10.974088120897985	0	0	0
78	1	1	-8.974644300452733	-10.932923761279797	11.621013307764642	0	0	0
79	1	1	-8.814488727749008	-11.865950124779996	11.298814615114381	0	0	0
80	1	1	-8.654333155045284	-12.611495559431356	11.945739801981038	0	0	0
81	1	1	-8.49417758234156	-13.544521922931555	11.623541109330777	0	0	0
82	1	1	-8.334022009637836	-14.290067357582915	12.270466296197434	0	0	0
83	1	1	-8.173866436934112	-15.223093721083114	11.948267603547173	0	0	0
84	1	1	-8.013710864230388	-15.968639155734474	12.59519279041383	0	0	0
85	1	1	-7.853555291526665	-16.901665519234673	12.272994097763569	0	0	0
86	1	1	-8.239196454070068	-17.55173128775617	12.92774243899761	0	0	0
87	1	1	-8.62483761661347	-18.44207892804346	13.169738251331264	0	0	0
88	1	1	-9.010478779156873	-18.67767822709671	14.061799832186415	0	0	0
89	1	1	-9.396119941700276	-19.568025867384	14.303795644520068	0	0	0
90	1	1	-9.781761104243678	-19.80362516643725	15.195857225375219	0	0	0
91	1	1	-10.16740226678708	-20.693972806724542	15.437853037708873	0	0	0
92	1	1	-10.553043429330483	-20.92957210577779	16.329914618564022	0	0	0
93	1	1	-10.938684591873885	-21.819919746065082	16.571910430897674	0	0	0
94	1	1	-11.324325754417288	-22.05551904511833	17.463972011752823	0	0	0
95	1	1	-11.70996691696069	-22.945866685405623	17.705967824086475	0	0	0
96	1	1	-12.095608079504093	-23.18146598445887	18.598029404941624	0	0	0
97	1	1	-12.481249242047495	-24.071813624746163	18.840025217275276	0	0	0
98	1	1	-6.870101128477165	-17.060602051700812	12.186062585478046	0	0	0
99	1	1	-5.886646965427665	-17.15477937026314	12.031309421216317	0	0	0
100	1	1	-4.903192802378165	-17.335888201110986	12.035492789420726	0	0	0
101	1	1	-3.9197386393286644	-17.430065519673313	11.880739625158997	0	0	0
102	1	1	-2.9362844762791642	-17.61117435052116	11.884922993363405	0	0	0
103	1	1	-1.9528303132296643	-17.705351669083488	11.730169829101676	0	0	0
104	1	1	-0.9693761501801643	-17.886460499931335	11.734353197306085	0	0	0
105	1	1	0.014078012869335632	-17.980637818493662	11.579600033044356	0	0	0
106	1	1	0.9975321759188356	-18.16174664934151	11.583783401248764	0	0	0
107	1	1	1.9809863389683355	-18.255923967903836	11.429030236987035	0	0	0
108	1	1	2.9644405020178355	-18.437032798751684	11.433213605191444	0	0	0
109	1	1	3.947894665067335	-18.53121011731401	11.278460440929715	0	0	0
110	1	1	-8.290985205893715	-17.02701501819396	11.382520867886617	0	0	0
111	1	1	-8.728415120260765	-16.69033425370588	10.548673679943553	0	0	0
112	1	1	-9.165845034627814	-17.24412671909475	9.840175990959777	0	0	0
113	1	1	-9.603274948994864	-16.907445954606672	9.006328803016713	0	0	0
114	1	1	-10.040704863361913	-17.461238419995542	8.297831114032936	0	0	0
115	1	1	-10.478134777728963	-17.124557655507463	7.463983926089871	0	0	0
116	1	1	-10.915564692096012	-17.678350120896333	6.755486237106095	0	0	0
117	1	1	-11.352994606463062	-17.341669356408254	5.92163904916303	0	0	0
118	1	1	-11.790424520830111	-17.895461821797124	5.213141360179254	0	0	0
119	1	1	-12.22785443519716	-17.558781057309044	4.379294172236189	0	0	0
120	1	1	-12.66528434956421	-18.112573522697915	3.6707964832524125	0	0	0
121	1	1	-13.10271426393126	-17.775892758209835	2.8369492953093474	0	0	0
122	1	1	-13.523324005787222	-18.54046463751953	2.348566979469899	0	0	0
123	1	1	-13.943933747643184	-18.95841215010121	1.5433295475390139	0	0	0
124	1	1	-14.364543489499146	-19.86474197852234	1.5026639949178233	0	0	0
125	1	1	-14.785153231355109	-20.28268949110402	0.6974265629869383	0	0	0
126	1	1	-15.20576297321107	-21.189019319525148	0.6567610103657476	0	0	0
127	1	1	-15.626372715067033	-21.606966832106828	-0.1484764215651374	0	0	0
128	1	1	-16.046982456922994	-22.513296660527956	-0.18914197418632803	0	0	0
129	1	1	-16.467592198778956	-22.931244173109636	-0.9943794061172131	0	0	0
130	1	1	-16.888201940634918	-23.837574001530765	-1.0350449587384036	0	0	0
131	1	1	-17.30881168249088	-24.255521514112445	-1.8402823906692887	0	0	0
132	1	1	-17.729421424346842	-25.161851342533573	-1.8809479432904792	0	0	0
133	1	1	-18.150031166202805	-25.579798855115254	-2.6861853752213642	0	0	0
134	1	1	-12.416912951591096	-17.34375177129857	2.2513464201252646	0	0	0
135	1	1	-11.73111163925093	-16.676705261024896	1.9602699471422738	0	0	0
136	1	1	-11.045310326910764	-16.595261625935304	1.2370524872480173	0	0	0
137	1	1	-10.359509014570598	-15.928215115661628	0.9459760142650265	0	0	0
138	1	1	-9.673707702230432	-15.846771480572034	0.22275855437076997	0	0	0
139	1	1	-8.987906389890266	-15.179724970298357	-0.06831791861222081	0	0	0
140	1	1	-8.3021050775501	-15.098281335208764	-0.7915353785064774	0	0	0
141	1	1	-7.616303765209936	-14.431234824935087	-1.0826118514894683	0	0	0
142	1	1	-6.930502452869771	-14.349791189845494	-1.8058293113837247	0	0	0
143	1	1	-6.244701140529606	-13.682744679571817	-2.0969057843667156	0	0	0
144	1	1	-5.558899828189441	-13.601301044482224	-2.820123244260972	0	0	0
145	1	1	-4.873098515849276	-12.934254534208547	-3.111199717243963	0	0	0
146	1	1	-13.805957151964748	-17.106302820136833	3.0759027536683186	0	0	0
147	1	1	-14.509200039998236	-16.64589765282665	3.6176374879658355	0	0	0
148	1	1	-15.212442928031724	-15.946539027157497	3.4897822841903507	0	0	0
149	1	1	-15.915685816065212	-15.486133859847314	4.031517018487867	0	0	0
150	1	1	-16.6189287040987	-14.78677523417816	3.9036618147123825	0	0	0
151	1	1	-17.32217159213219	-14.326370066867977	4.4453965490098994	0	0	0
152	1	1	-18.02541448016568	-13.627011441198823	4.317541345234415	0	0	0
153	1	1	-18.72865736819917	-13.16660627388864	4.859276079531932	0	0	0
154	1	1	-19.43190025623266	-12.467247648219486	4.731420875756447	0	0	0
155	1	1	-20.13514314426615	-12.006842480909302	5.273155610053964	0	0	0
156	1	1	-20.83838603229964	-11.307483855240148	5.145300406278479	0	0	0
157	1	1	-21.541628920333128	-10.847078687929965	5.687035140575996	0	0	0
158	1	1	-21.122189053090246	-10.430274832434664	6.493474688100502	0	0	0
159	1	1	-20.702749185847367	-10.472531878942688	7.400273750620801	0	0	0
160	1	1	-20.283309318604488	-9.708349377926208	7.890268957645801	0	0	0
161	1	1	-19.86386945136161	-9.750606424434231	8.7970680201661	0	0	0
162	1	1	-19.44442958411873	-8.986423923417751	9.287063227191098	0	0	0
163	1	1	-19.02498971687585	-9.028680969925775	10.193862289711397	0	0	0
164	1	1	-18.605549849632972	-8.264498468909295	10.683857496736396	0	0	0
165	1	1	-18.186109982390093	-8.306755515417318	11.590656559256695	0	0	0
166	1	1	-17.766670115147214	-7.542573014400838	12.080651766281694	0	0	0
167	1	1	-17.347230247904335	-7.584830060908862	12.987450828801993	0	0	0
168	1	1	-16.927790380661456	-6.8206475598923815	13.477446035826992	0	0	0
169	1	1	-16.508350513418577	-6.862904606400406	14.384245098347291	0	0	0
170	1	1	-22.229469406097568	-11.512876577395803	5.976152135106199	0	0	0
171	1	1	-22.917309891862008	-12.234032960724383	5.893635852302243	0	0	0
172	1	1	-23.605150377626448	-12.666072349522759	6.476917458964123	0	0	0
173	1	1	-24.292990863390887	-13.387228732851339	6.394401176160167	0	0	0
174	1	1	-24.980831349155327	-13.819268121649715	6.977682782822047	0	0	0
175	1	1	-25.668671834919767	-14.540424504978295	6.895166500018091	0	0	0
176	1	1	-26.356512320684207	-14.972463893776672	7.478448106679971	0	0	0
177	1	1	-27.044352806448646	-15.693620277105252	7.3959318238760146	0	0	0
178	1	1	-27.732193292213086	-16.12565966590363	7.979213430537895	0	0	0
179	1	1	-28.420033777977526	-16.84681604923221	7.8966971477339385	0	0	0
180	1	1	-29.107874263741966	-17.278855438030586	8.47997875439582	0	0	0
181	1	1	-29.795714749506406	-18.000011821359166	8.397462471591863	0	0	0
182	1	1	-21.97747020101041	-10.137025445334988	5.133982909102377	0	0	0
183	1	1	-22.41331148168769	-9.245575183471415	5.0100522483240395	0	0	0
184	1	1	-22.84915276236497	-8.90717715308146	4.1760683449507265	0	0	0
185	1	1	-23.28499404304225	-8.015726891217886	4.052137684172389	0	0	0
186	1	1	-23.72083532371953	-7.677328860827931	3.218153780799076	0	0	0
187	1	1	-24.15667660439681	-6.7858785989643575	3.094223120020739	0	0	0
188	1	1	-24.59251788507409	-6.447480568574402	2.260239216647426	0	0	0
189	1	1	-25.02835916575137	-5.556030306710829	2.136308555869089	0	0	0
190	1	1	-25.464200446428652	-5.217632276320874	1.3023246524957761	0	0	0
191	1	1	-25.900041727105933	-4.3261820144573	1.178393991717439	0	0	0
192	1	1	-26.335883007783213	-3.9877839840673452	0.3444100883441261	0	0	0
193	1	1	-26.771724288460494	-3.096333722203772	0.22047942756578906	0	0	0

Bonds

1	1	1	2
2	1	2	3
3	1	3	4
4	1	4	5
5	1	5	6
6	1	6	7
7	1	7	8
8	1	8	9
9	1	9	10
10	1	10	11
11	1	11	12
12	1	12	13
13	1	13	14
14	1	13	26
15	1	13	38
16	1	14	15
17	1	15	16
18	1	16	17
19	1	17	18
20	1	18	19
21	1	19	20
22	1	20	21
23	1	21	22
24	1	22	23
25	1	23	24
26	1	24	25
27	1	26	27
28	1	27	28
29	1	28	29
30	1	29	30
31	1	30	31
32	1	31	32
33	1	32	33
34	1	33	34
35	1	34	35
36	1	35	36
37	1	36	37
38	1	38	39
39	1	39	40
40	1	40	41
41	1	41	42
42	1	42	43
43	1	43	44
44	1	44	45
45	1	45	46
46	1	46	47
47	1	47	48
48	1	48	49
49	1	49	50
50	1	49	62
51	1	49	74
52	1	50	51
53	1	51	52
54	1	52	53
55	1	53	54
56	1	54	55
57	1	55	56
58	1	56	57
59	1	57	58
60	1	58	59
61	1	59	60
62	1	60	61
63	1	62	63
64	1	63	64
65	1	64	65
66	1	65	66
67	1	66	67
68	1	67	68
69	1	68	69
70	1	69	70
71	1	70	71
72	1	71	72
73	1	72	73
74	1	74	75
75	1	75	76
76	1	76	77
77	1	77	78
78	1	78	79
79	1	79	80
80	1	80	81
81	1	81	82
82	1	82	83
83	1	83	84
84	1	84	85
85	1	85	86
86	1	85	98
87	1	85	110
88	1	86	87
89	1	87	88
90	1	88	89
91	1	89	90
92	1	90	91
93	1	91	92
94	1	92	93
95	1	93	94
96	1	94	95
97	1	95	96
98	1	96	97
99	1	98	99
100	1	99	100
101	1	100	101
102	1	101	102
103	1	102	103
104	1	103	104
105	1	104	105
106	1	105	106
107	1	106	107
108	1	107	108
109	1	108	109
110	1	110	111
111	1	111	112
112	1	112	113
113	1	113	114
114	1	114	115
115	1	115	116
116	1	116	117
117	1	117	118
118	1	118	119
119	1	119	120
120	1	120	121
121	1	121	122
122	1	121	134
123	1	121	146
124	1	122	123
125	1	123	124
126	1	124	125
127	1	125	126
128	1	126	127
129	1	127	128
130	1	128	129
131	1	129	130
132	1	130	131
133	1	131	132
134	1	132	133
135	1	134	135
136	1	135	136
137	1	136	137
138	1	137	138
139	1	138	139
140	1	139	140
141	1	140	141
142	1	141	142
143	1	142	143
144	1	143	144
145	1	144	145
146	1	146	147
147	1	147	148
148	1	148	149
149	1	149	150
150	1	150	151
151	1	151	152
152	1	152	153
153	1	153	154
154	1	154	155
155	1	155	156
156	1	156	157
157	1	157	158
158	1	157	170
159	1	157	182
160	1	158	159
161	1	159	160
162	1	160	161
163	1	161	162
164	1	162	163
165	1	163	164
166	1	164	165
167	1	165	166
168	1	166	167
169	1	167	168
170	1	168	169
171	1	170	171
172	1	171	172
173	1	172	173
174	1	173	174
175	1	174	175
176	1	175	176
177	1	176	177
178	1	177	178
179	1	178	179
180	1	179	180
181	1	180	181
182	1	182	183
183	1	183	184
184	1	184	185
185	1	185	186
186	1	186	187
187	1	187	188
188	1	188	189
189	1	189	190
190	1	190	191
191	1	191	192
192	1	192	193

Angles

1	1	1	2	3
2	1	2	3	4
3	1	3	4	5
4	1	4	5	6
5	1	5	6	7
6	1	6	7	8
7	1	7	8	9
8	1	8	9	10
9	1	9	10	11
10	1	10	11	12
11	1	11	12	13
12	1	12	13	14
13	1	12	13	26
14	1	12	13	38
15	1	13	14	15
16	1	13	26	27
17	1	13	38	39
18	1	14	13	26
19	1	14	13	38
20	1	14	15	16
21	1	15	16	17
22	1	16	17	18
23	1	17	18	19
24	1	18	19	20
25	1	19	20	21
26	1	20	21	22
27	1	21	22	23
28	1	22	23	24
29	1	23	24	25
30	1	26	13	38
31	1	26	27	28
32	1	27	28	29
33	1	28	29	30
34	1	29	30	31
35	1	30	31	32
36	1	31	32	33
37	1	32	33	34
38	1	33	34	35
39	1	34	35	36
40	1	35	36	37
41	1	38	39	40
42	1	39	40	41
43	1	40	41	42
44	1	41	42	43
45	1	42	43	44
46	1	43	44	45
47	1	44	45	46
48	1	45	46	47
49	1	46	47	48
50	1	47	48	49
51	1	48	49	50
52	1	48	49	62
53	1	48	49	74
54	1	49	50	51
55	1	49	62	63
56	1	49	74	75
57	1	50	49	62
58	1	50	49	74
59	1	50	51	52
60	1	51	52	53
61	1	52	53	54
62	1	53	54	55
63	1	54	55	56
64	1	55	56	57
65	1	56	57	58
66	1	57	58	59
67	1	58	59	60
68	1	59	60	61
69	1	62	49	74
70	1	62	63	64
71	1	63	64	65
72	1	64	65	66
73	1	65	66	67
74	1	66	67	68
75	1	67	68	69
76	1	68	69	70
77	1	69	70	71
78	1	70	71	72
79	1	71	72	73
80	1	74	75	76
81	1	75	76	77
82	1	76	77	78
83	1	77	78	79
84	1	78	79	80
85	1	79	80	81
86	1	80	81	82
87	1	81	82	83
88	1	82	83	84
89	1	83	84	85
90	1	84	85	86
91	1	84	85	98
92	1	84	85	110
93	1	85	86	87
94	1	85	98	99
95	1	85	110	111
96	1	86	85	98
97	1	86	85	110
98	1	86	87	88
99	1	87	88	89
100	1	88	89	90
101	1	89	90	91
102	1	90	91	92
103	1	91	92	93
104	1	92	93	94
105	1	93	94	95
106	1	94	95	96
107	1	95	96	97
108	1	98	85	110
109	1	98	99	100
110	1	99	100	101
111	1	100	101	102
112	1	101	102	103
113	1	102	103	104
114	1	103	104	105
115	1	104	105	106
116	1	105	106	107
117	1	106	107	108
118	1	107	108	109
119	1	110	111	112
120	1	111	112	113
121	1	112	113	114
122	1	113	114	115
123	1	114	115	116
124	1	115	116	117
125	1	116	117	118
126	1	117	118	119
127	1	118	119	120
128	1	119	120	121
129	1	120	121	122
130	1	120	121	134
131	1	120	121	146
132	1	121	122	123
133	1	121	134	135
134	1	121	146	147
135	1	122	121	134
136	1	122	121	146
137	1	122	123	124
138	1	123	124	125
139	1	124	125	126
140	1	125	126	127
141	1	126	127	128
142	1	127	128	129
143	1	128	129	130
144	1	129	130	131
145	1	130	131	132
146	1	131	132	133
147	1	134	121	146
148	1	134	135	136
149	1	135	136	137
150	1	136	137	138
151	1	137	138	139
152	1	138	139	140
153	1	139	140	141
154	1	140	141	142
155	1	141	142	143
156	1	142	143	144
157	1	143	144	145
158	1	146	147	148
159	1	147	148	149
160	1	148	149	150
161	1	149	150	151
162	1	150	151	152
163	1	151	152	153
164	1	152	153	154
165	1	153	154	155
166	1	154	155	156
167	1	155	156	157
168	1	156	157	158
169	1	156	157	170
170	1	156	157	182
171	1	157	158	159
172	1	157	170	171
173	1	157	182	183
174	1	158	157	170
175	1	158	157	182
176	1	158	159	160
177	1	159	160	161
178	1	160	161	162
179	1	161	162	163
180	1	162	163	164
181	1	163	164	165
182	1	164	165	166
183	1	165	166	167
184	1	166	167	168
185	1	167	168	169
186	1	170	157	182
187	1	170	171	172
188	1	171	172	173
189	1	172	173	174
190	1	173	174	175
191	1	174	175	176
192	1	175	176	177
193	1	176	177	178
194	1	177	178	179
195	1	178	179	180
196	1	179	180	181
197	1	182	183	184
198	1	183	184	185
199	1	184	185	186
200	1	185	186	187
201	1	186	187	188
202	1	187	188	189
203	1	188	189	190
204	1	189	190	191
205	1	190	191	192
206	1	191	192	193
