ITEM: TIMESTEP
0
ITEM: NUMBER OF ATOMS
401
ITEM: BOX BOUNDS pp pp pp
-1.0000000000000000e+03 1.0000000000000000e+03
-1.0000000000000000e+03 1.0000000000000000e+03
-1.0000000000000000e+03 1.0000000000000000e+03
ITEM: ATOMS id x y z ix iy iz
1 0.00000 0.00000 0.00000 0 0 0
2 0.00000 0.00000 1.00000 0 0 0
3 0.00000 -0.50000 1.86603 0 0 0
4 0.00000 0.00000 2.73205 0 0 0
5 0.00000 -0.50000 3.59808 0 0 0
6 0.00000 0.00000 4.46410 0 0 0
7 0.00000 -0.50000 5.33013 0 0 0
8 0.00000 0.00000 6.19615 0 0 0
9 0.00000 -0.50000 7.06218 0 0 0
10 0.00000 0.00000 7.92820 0 0 0
11 0.00000 -0.50000 8.79423 0 0 0
12 0.00000 0.00000 9.66025 0 0 0
13 0.00000 -0.50000 10.52628 0 0 0
14 0.00000 0.00000 11.39230 0 0 0
15 0.00000 -0.50000 12.25833 0 0 0
16 0.00000 0.00000 13.12436 0 0 0
17 0.00000 -0.50000 13.99038 0 0 0
18 0.00000 0.00000 14.85641 0 0 0
19 0.00000 -0.50000 15.72243 0 0 0
20 0.00000 0.00000 16.58846 0 0 0
21 0.00000 -0.50000 17.45448 0 0 0
22 0.00000 0.00000 18.32051 0 0 0
23 0.00000 -0.50000 19.18653 0 0 0
24 0.00000 0.00000 20.05256 0 0 0
25 0.00000 -0.50000 20.91858 0 0 0
26 0.00000 0.00000 21.78461 0 0 0
27 0.00000 -0.50000 22.65064 0 0 0
28 0.00000 0.00000 23.51666 0 0 0
29 0.00000 -0.50000 24.38269 0 0 0
30 0.00000 0.00000 25.24871 0 0 0
31 0.00000 -0.50000 26.11474 0 0 0
32 0.00000 0.00000 26.98076 0 0 0
33 0.00000 -0.50000 27.84679 0 0 0
34 0.00000 0.00000 28.71281 0 0 0
35 0.00000 -0.50000 29.57884 0 0 0
36 0.00000 0.00000 30.44486 0 0 0
37 0.00000 -0.50000 31.31089 0 0 0
38 0.00000 0.00000 32.17691 0 0 0
39 0.00000 -0.50000 33.04294 0 0 0
40 0.00000 0.00000 33.90897 0 0 0
41 0.00000 -0.50000 34.77499 0 0 0
42 0.00000 0.00000 35.64102 0 0 0
43 0.00000 -0.50000 36.50704 0 0 0
44 0.00000 0.00000 37.37307 0 0 0
45 0.00000 -0.50000 38.23909 0 0 0
46 0.00000 0.00000 39.10512 0 0 0
47 0.00000 -0.50000 39.97114 0 0 0
48 0.00000 0.00000 40.83717 0 0 0
49 0.00000 -0.50000 41.70319 0 0 0
50 0.00000 0.00000 42.56922 0 0 0
51 0.00000 -0.50000 43.43524 0 0 0
52 0.00000 0.00000 44.30127 0 0 0
53 0.00000 -0.50000 45.16730 0 0 0
54 0.00000 0.00000 46.03332 0 0 0
55 0.00000 -0.50000 46.89935 0 0 0
56 0.00000 0.00000 47.76537 0 0 0
57 0.00000 -0.50000 48.63140 0 0 0
58 0.00000 0.00000 49.49742 0 0 0
59 0.00000 -0.50000 50.36345 0 0 0
60 0.00000 0.00000 51.22947 0 0 0
61 0.00000 -0.50000 52.09550 0 0 0
62 0.00000 0.00000 52.96152 0 0 0
63 0.00000 -0.50000 53.82755 0 0 0
64 0.00000 0.00000 54.69358 0 0 0
65 0.00000 -0.50000 55.55960 0 0 0
66 0.00000 0.00000 56.42563 0 0 0
67 0.00000 -0.50000 57.29165 0 0 0
68 0.00000 0.00000 58.15768 0 0 0
69 0.00000 -0.50000 59.02370 0 0 0
70 0.00000 0.00000 59.88973 0 0 0
71 0.00000 -0.50000 60.75575 0 0 0
72 0.00000 0.00000 61.62178 0 0 0
73 0.00000 -0.50000 62.48780 0 0 0
74 0.00000 0.00000 63.35383 0 0 0
75 0.00000 -0.50000 64.21985 0 0 0
76 0.00000 0.00000 65.08588 0 0 0
77 0.00000 -0.50000 65.95191 0 0 0
78 0.00000 0.00000 66.81793 0 0 0
79 0.00000 -0.50000 67.68396 0 0 0
80 0.00000 0.00000 68.54998 0 0 0
81 0.00000 -0.50000 69.41601 0 0 0
82 0.00000 0.00000 70.28203 0 0 0
83 0.00000 -0.50000 71.14806 0 0 0
84 0.00000 0.00000 72.01408 0 0 0
85 0.00000 -0.50000 72.88011 0 0 0
86 0.00000 0.00000 73.74613 0 0 0
87 0.00000 -0.50000 74.61216 0 0 0
88 0.00000 0.00000 75.47818 0 0 0
89 0.00000 -0.50000 76.34421 0 0 0
90 0.00000 0.00000 77.21024 0 0 0
91 0.00000 -0.50000 78.07626 0 0 0
92 0.00000 0.00000 78.94229 0 0 0
93 0.00000 -0.50000 79.80831 0 0 0
94 0.00000 0.00000 80.67434 0 0 0
95 0.00000 -0.50000 81.54036 0 0 0
96 0.00000 0.00000 82.40639 0 0 0
97 0.00000 -0.50000 83.27241 0 0 0
98 0.00000 0.00000 84.13844 0 0 0
99 0.00000 -0.50000 85.00446 0 0 0
100 0.00000 0.00000 85.87049 0 0 0
101 0.00000 -0.50000 86.73651 0 0 0
102 0.08448 -1.47997 86.55618 0 0 0
103 0.16896 -2.23848 85.91001 0 0 0
104 0.25344 -3.17733 86.24382 0 0 0
105 0.33792 -3.93584 85.59766 0 0 0
106 0.42240 -4.87468 85.93146 0 0 0
107 0.50689 -5.63319 85.28530 0 0 0
108 0.59137 -6.57204 85.61911 0 0 0
109 0.67585 -7.33055 84.97294 0 0 0
110 0.76033 -8.26940 85.30675 0 0 0
111 0.84481 -9.02791 84.66059 0 0 0
112 0.92929 -9.96676 84.99440 0 0 0
113 1.01377 -10.72527 84.34823 0 0 0
114 1.09825 -11.66412 84.68204 0 0 0
115 1.18273 -12.42262 84.03588 0 0 0
116 1.26721 -13.36147 84.36968 0 0 0
117 1.35169 -14.11998 83.72352 0 0 0
118 1.43617 -15.05883 84.05733 0 0 0
119 1.52066 -15.81734 83.41116 0 0 0
120 1.60514 -16.75619 83.74497 0 0 0
121 1.68962 -17.51470 83.09881 0 0 0
122 1.77410 -18.45355 83.43261 0 0 0
123 1.85858 -19.21205 82.78645 0 0 0
124 1.94306 -20.15090 83.12026 0 0 0
125 2.02754 -20.90941 82.47410 0 0 0
126 2.11202 -21.84826 82.80790 0 0 0
127 2.19650 -22.60677 82.16174 0 0 0
128 2.28098 -23.54562 82.49555 0 0 0
129 2.36546 -24.30413 81.84938 0 0 0
130 2.44994 -25.24298 82.18319 0 0 0
131 2.53443 -26.00148 81.53703 0 0 0
132 2.61891 -26.94033 81.87083 0 0 0
133 2.70339 -27.69884 81.22467 0 0 0
134 2.78787 -28.63769 81.55848 0 0 0
135 2.87235 -29.39620 80.91232 0 0 0
136 2.95683 -30.33505 81.24612 0 0 0
137 3.04131 -31.09356 80.59996 0 0 0
138 3.12579 -32.03241 80.93377 0 0 0
139 3.21027 -32.79091 80.28760 0 0 0
140 3.29475 -33.72976 80.62141 0 0 0
141 3.37923 -34.48827 79.97525 0 0 0
142 3.46372 -35.42712 80.30905 0 0 0
143 3.54820 -36.18563 79.66289 0 0 0
144 3.63268 -37.12448 79.99670 0 0 0
145 3.71716 -37.88299 79.35053 0 0 0
146 3.80164 -38.82184 79.68434 0 0 0
147 3.88612 -39.58035 79.03818 0 0 0
148 3.97060 -40.51919 79.37199 0 0 0
149 4.05508 -41.27770 78.72582 0 0 0
150 4.13956 -42.21655 79.05963 0 0 0
151 4.22404 -42.97506 78.41347 0 0 0
152 4.30852 -43.91391 78.74727 0 0 0
153 4.39300 -44.67242 78.10111 0 0 0
154 4.47749 -45.61127 78.43492 0 0 0
155 4.56197 -46.36978 77.78875 0 0 0
156 4.64645 -47.30862 78.12256 0 0 0
157 4.73093 -48.06713 77.47640 0 0 0
158 4.81541 -49.00598 77.81020 0 0 0
159 4.89989 -49.76449 77.16404 0 0 0
160 4.98437 -50.70334 77.49785 0 0 0
161 5.06885 -51.46185 76.85169 0 0 0
162 5.15333 -52.40070 77.18549 0 0 0
163 5.23781 -53.15921 76.53933 0 0 0
164 5.32229 -54.09805 76.87314 0 0 0
165 5.40677 -54.85656 76.22697 0 0 0
166 5.49126 -55.79541 76.56078 0 0 0
167 5.57574 -56.55392 75.91462 0 0 0
168 5.66022 -57.49277 76.24842 0 0 0
169 5.74470 -58.25128 75.60226 0 0 0
170 5.82918 -59.19013 75.93607 0 0 0
171 5.91366 -59.94864 75.28991 0 0 0
172 5.99814 -60.88748 75.62371 0 0 0
173 6.08262 -61.64599 74.97755 0 0 0
174 6.16710 -62.58484 75.31136 0 0 0
175 6.25158 -63.34335 74.66519 0 0 0
176 6.33606 -64.28220 74.99900 0 0 0
177 6.42055 -65.04071 74.35284 0 0 0
178 6.50503 -65.97956 74.68664 0 0 0
179 6.58951 -66.73807 74.04048 0 0 0
180 6.67399 -67.67691 74.37429 0 0 0
181 6.75847 -68.43542 73.72812 0 0 0
182 6.84295 -69.37427 74.06193 0 0 0
183 6.92743 -70.13278 73.41577 0 0 0
184 7.01191 -71.07163 73.74958 0 0 0
185 7.09639 -71.83014 73.10341 0 0 0
186 7.18087 -72.76899 73.43722 0 0 0
187 7.26535 -73.52750 72.79106 0 0 0
188 7.34983 -74.46634 73.12486 0 0 0
189 7.43432 -75.22485 72.47870 0 0 0
190 7.51880 -76.16370 72.81251 0 0 0
191 7.60328 -76.92221 72.16634 0 0 0
192 7.68776 -77.86106 72.50015 0 0 0
193 7.77224 -78.61957 71.85399 0 0 0
194 7.85672 -79.55842 72.18779 0 0 0
195 7.94120 -80.31693 71.54163 0 0 0
196 8.02568 -81.25577 71.87544 0 0 0
197 8.11016 -82.01428 71.22928 0 0 0
198 8.19464 -82.95313 71.56308 0 0 0
199 8.27912 -83.71164 70.91692 0 0 0
200 8.36360 -84.65049 71.25073 0 0 0
201 8.44809 -85.40900 70.60456 0 0 0
202 -0.85531 -0.32373 87.22373 0 0 0
203 -1.71061 -0.41469 87.73381 0 0 0
204 -2.56592 -0.01842 88.06761 0 0 0
205 -3.42123 -0.10938 88.57769 0 0 0
206 -4.27653 0.28688 88.91150 0 0 0
207 -5.13184 0.19593 89.42157 0 0 0
208 -5.98715 0.59219 89.75538 0 0 0
209 -6.84245 0.50124 90.26546 0 0 0
210 -7.69776 0.89750 90.59926 0 0 0
211 -8.55307 0.80654 91.10934 0 0 0
212 -9.40838 1.20280 91.44315 0 0 0
213 -10.26368 1.11185 91.95322 0 0 0
214 -11.11899 1.50811 92.28703 0 0 0
215 -11.97430 1.41716 92.79710 0 0 0
216 -12.82960 1.81342 93.13091 0 0 0
217 -13.68491 1.72246 93.64099 0 0 0
218 -14.54022 2.11873 93.97479 0 0 0
219 -15.39552 2.02777 94.48487 0 0 0
220 -16.25083 2.42403 94.81868 0 0 0
221 -17.10614 2.33308 95.32875 0 0 0
222 -17.96144 2.72934 95.66256 0 0 0
223 -18.81675 2.63839 96.17264 0 0 0
224 -19.67206 3.03465 96.50644 0 0 0
225 -20.52736 2.94369 97.01652 0 0 0
226 -21.38267 3.33995 97.35033 0 0 0
227 -22.23798 3.24900 97.86040 0 0 0
228 -23.09328 3.64526 98.19421 0 0 0
229 -23.94859 3.55431 98.70428 0 0 0
230 -24.80390 3.95057 99.03809 0 0 0
231 -25.65920 3.85961 99.54817 0 0 0
232 -26.51451 4.25588 99.88197 0 0 0
233 -27.36982 4.16492 100.39205 0 0 0
234 -28.22513 4.56118 100.72586 0 0 0
235 -29.08043 4.47023 101.23593 0 0 0
236 -29.93574 4.86649 101.56974 0 0 0
237 -30.79105 4.77554 102.07982 0 0 0
238 -31.64635 5.17180 102.41362 0 0 0
239 -32.50166 5.08084 102.92370 0 0 0
240 -33.35697 5.47710 103.25751 0 0 0
241 -34.21227 5.38615 103.76758 0 0 0
242 -35.06758 5.78241 104.10139 0 0 0
243 -35.92289 5.69146 104.61146 0 0 0
244 -36.77819 6.08772 104.94527 0 0 0
245 -37.63350 5.99676 105.45535 0 0 0
246 -38.48881 6.39303 105.78915 0 0 0
247 -39.34411 6.30207 106.29923 0 0 0
248 -40.19942 6.69833 106.63304 0 0 0
249 -41.05473 6.60738 107.14311 0 0 0
250 -41.91003 7.00364 107.47692 0 0 0
251 -42.76534 6.91268 107.98700 0 0 0
252 -43.62065 7.30895 108.32080 0 0 0
253 -44.47596 7.21799 108.83088 0 0 0
254 -45.33126 7.61425 109.16468 0 0 0
255 -46.18657 7.52330 109.67476 0 0 0
256 -47.04188 7.91956 110.00857 0 0 0
257 -47.89718 7.82861 110.51864 0 0 0
258 -48.75249 8.22487 110.85245 0 0 0
259 -49.60780 8.13391 111.36253 0 0 0
260 -50.46310 8.53017 111.69633 0 0 0
261 -51.31841 8.43922 112.20641 0 0 0
262 -52.17372 8.83548 112.54022 0 0 0
263 -53.02902 8.74453 113.05029 0 0 0
264 -53.88433 9.14079 113.38410 0 0 0
265 -54.73964 9.04983 113.89418 0 0 0
266 -55.59494 9.44610 114.22798 0 0 0
267 -56.45025 9.35514 114.73806 0 0 0
268 -57.30556 9.75140 115.07186 0 0 0
269 -58.16086 9.66045 115.58194 0 0 0
270 -59.01617 10.05671 115.91575 0 0 0
271 -59.87148 9.96576 116.42582 0 0 0
272 -60.72678 10.36202 116.75963 0 0 0
273 -61.58209 10.27106 117.26971 0 0 0
274 -62.43740 10.66732 117.60351 0 0 0
275 -63.29271 10.57637 118.11359 0 0 0
276 -64.14801 10.97263 118.44740 0 0 0
277 -65.00332 10.88168 118.95747 0 0 0
278 -65.85863 11.27794 119.29128 0 0 0
279 -66.71393 11.18698 119.80136 0 0 0
280 -67.56924 11.58325 120.13516 0 0 0
281 -68.42455 11.49229 120.64524 0 0 0
282 -69.27985 11.88855 120.97904 0 0 0
283 -70.13516 11.79760 121.48912 0 0 0
284 -70.99047 12.19386 121.82293 0 0 0
285 -71.84577 12.10291 122.33300 0 0 0
286 -72.70108 12.49917 122.66681 0 0 0
287 -73.55639 12.40821 123.17689 0 0 0
288 -74.41169 12.80447 123.51069 0 0 0
289 -75.26700 12.71352 124.02077 0 0 0
290 -76.12231 13.10978 124.35458 0 0 0
291 -76.97761 13.01883 124.86465 0 0 0
292 -77.83292 13.41509 125.19846 0 0 0
293 -78.68823 13.32413 125.70854 0 0 0
294 -79.54354 13.72040 126.04234 0 0 0
295 -80.39884 13.62944 126.55242 0 0 0
296 -81.25415 14.02570 126.88622 0 0 0
297 -82.10946 13.93475 127.39630 0 0 0
298 -82.96476 14.33101 127.73011 0 0 0
299 -83.82007 14.24005 128.24018 0 0 0
300 -84.67538 14.63632 128.57399 0 0 0
301 -85.53068 14.54536 129.08407 0 0 0
302 0.77083 -0.19701 87.29689 0 0 0
303 1.54165 -0.21480 87.93369 0 0 0
304 2.31248 0.32779 88.26750 0 0 0
305 3.08330 0.30999 88.90429 0 0 0
306 3.85413 0.85258 89.23810 0 0 0
307 4.62496 0.83479 89.87490 0 0 0
308 5.39578 1.37737 90.20871 0 0 0
309 6.16661 1.35958 90.84550 0 0 0
310 6.93743 1.90217 91.17931 0 0 0
311 7.70826 1.88438 91.81611 0 0 0
312 8.47909 2.42696 92.14991 0 0 0
313 9.24991 2.40917 92.78671 0 0 0
314 10.02074 2.95176 93.12052 0 0 0
315 10.79156 2.93397 93.75732 0 0 0
316 11.56239 3.47655 94.09112 0 0 0
317 12.33322 3.45876 94.72792 0 0 0
318 13.10404 4.00135 95.06173 0 0 0
319 13.87487 3.98356 95.69852 0 0 0
320 14.64569 4.52614 96.03233 0 0 0
321 15.41652 4.50835 96.66913 0 0 0
322 16.18735 5.05094 97.00293 0 0 0
323 16.95817 5.03315 97.63973 0 0 0
324 17.72900 5.57573 97.97354 0 0 0
325 18.49982 5.55794 98.61034 0 0 0
326 19.27065 6.10053 98.94414 0 0 0
327 20.04148 6.08274 99.58094 0 0 0
328 20.81230 6.62532 99.91475 0 0 0
329 21.58313 6.60753 100.55154 0 0 0
330 22.35395 7.15012 100.88535 0 0 0
331 23.12478 7.13233 101.52215 0 0 0
332 23.89561 7.67491 101.85596 0 0 0
333 24.66643 7.65712 102.49275 0 0 0
334 25.43726 8.19971 102.82656 0 0 0
335 26.20808 8.18192 103.46336 0 0 0
336 26.97891 8.72450 103.79716 0 0 0
337 27.74974 8.70671 104.43396 0 0 0
338 28.52056 9.24930 104.76777 0 0 0
339 29.29139 9.23150 105.40457 0 0 0
340 30.06221 9.77409 105.73837 0 0 0
341 30.83304 9.75630 106.37517 0 0 0
342 31.60386 10.29889 106.70898 0 0 0
343 32.37469 10.28109 107.34577 0 0 0
344 33.14552 10.82368 107.67958 0 0 0
345 33.91634 10.80589 108.31638 0 0 0
346 34.68717 11.34848 108.65018 0 0 0
347 35.45799 11.33068 109.28698 0 0 0
348 36.22882 11.87327 109.62079 0 0 0
349 36.99965 11.85548 110.25759 0 0 0
350 37.77047 12.39807 110.59139 0 0 0
351 38.54130 12.38027 111.22819 0 0 0
352 39.31212 12.92286 111.56200 0 0 0
353 40.08295 12.90507 112.19879 0 0 0
354 40.85378 13.44765 112.53260 0 0 0
355 41.62460 13.42986 113.16940 0 0 0
356 42.39543 13.97245 113.50321 0 0 0
357 43.16625 13.95466 114.14000 0 0 0
358 43.93708 14.49724 114.47381 0 0 0
359 44.70791 14.47945 115.11061 0 0 0
360 45.47873 15.02204 115.44441 0 0 0
361 46.24956 15.00425 116.08121 0 0 0
362 47.02038 15.54683 116.41502 0 0 0
363 47.79121 15.52904 117.05181 0 0 0
364 48.56204 16.07163 117.38562 0 0 0
365 49.33286 16.05384 118.02242 0 0 0
366 50.10369 16.59642 118.35623 0 0 0
367 50.87451 16.57863 118.99302 0 0 0
368 51.64534 17.12122 119.32683 0 0 0
369 52.41617 17.10343 119.96363 0 0 0
370 53.18699 17.64601 120.29743 0 0 0
371 53.95782 17.62822 120.93423 0 0 0
372 54.72864 18.17081 121.26804 0 0 0
373 55.49947 18.15302 121.90484 0 0 0
374 56.27030 18.69560 122.23864 0 0 0
375 57.04112 18.67781 122.87544 0 0 0
376 57.81195 19.22040 123.20925 0 0 0
377 58.58277 19.20261 123.84604 0 0 0
378 59.35360 19.74519 124.17985 0 0 0
379 60.12443 19.72740 124.81665 0 0 0
380 60.89525 20.26999 125.15045 0 0 0
381 61.66608 20.25220 125.78725 0 0 0
382 62.43690 20.79478 126.12106 0 0 0
383 63.20773 20.77699 126.75786 0 0 0
384 63.97856 21.31958 127.09166 0 0 0
385 64.74938 21.30178 127.72846 0 0 0
386 65.52021 21.84437 128.06227 0 0 0
387 66.29103 21.82658 128.69906 0 0 0
388 67.06186 22.36917 129.03287 0 0 0
389 67.83269 22.35137 129.66967 0 0 0
390 68.60351 22.89396 130.00348 0 0 0
391 69.37434 22.87617 130.64027 0 0 0
392 70.14516 23.41876 130.97408 0 0 0
393 70.91599 23.40096 131.61088 0 0 0
394 71.68682 23.94355 131.94468 0 0 0
395 72.45764 23.92576 132.58148 0 0 0
396 73.22847 24.46835 132.91529 0 0 0
397 73.99929 24.45055 133.55209 0 0 0
398 74.77012 24.99314 133.88589 0 0 0
399 75.54095 24.97535 134.52269 0 0 0
400 76.31177 25.51794 134.85650 0 0 0
401 77.08260 25.50014 135.49329 0 0 0
ITEM: TIMESTEP
1000
ITEM: NUMBER OF ATOMS
401
ITEM: BOX BOUNDS pp pp pp
-1.0000000000000000e+03 1.0000000000000000e+03
-1.0000000000000000e+03 1.0000000000000000e+03
-1.0000000000000000e+03 1.0000000000000000e+03
ITEM: ATOMS id x y z ix iy iz
1 2.20264 1.55378 5.44081 0 0 0
2 1.32924 1.89831 5.79936 0 0 0
3 0.88570 2.75758 5.89943 0 0 0
4 0.59118 2.59839 6.79238 0 0 0
5 0.04726 2.15492 7.41406 0 0 0
6 0.35079 2.25318 8.35449 0 0 0
7 1.27684 2.10923 8.02013 0 0 0
8 1.72189 2.45202 8.84647 0 0 0
9 1.58784 1.50965 9.09529 0 0 0
10 2.52290 1.51014 9.43803 0 0 0
11 3.04416 1.73839 10.25946 0 0 0
12 2.97497 1.90991 11.22244 0 0 0
13 2.33228 1.63448 11.88663 0 0 0
14 1.90633 0.89373 12.34277 0 0 0
15 1.71272 0.79559 13.27019 0 0 0
16 1.51497 0.56941 14.22887 0 0 0
17 2.17956 0.41555 14.92885 0 0 0
18 2.24485 0.43296 15.93586 0 0 0
19 2.47873 0.22372 16.86188 0 0 0
20 2.13564 0.35200 17.83787 0 0 0
21 1.90367 0.32905 18.78597 0 0 0
22 2.11555 -0.00085 19.64473 0 0 0
23 1.76233 -0.52907 20.36294 0 0 0
24 1.12108 -0.70147 21.05557 0 0 0
25 1.21637 -0.24933 21.92168 0 0 0
26 1.32190 0.17188 22.80160 0 0 0
27 1.33550 0.47145 23.70529 0 0 0
28 1.65222 -0.16106 24.33360 0 0 0
29 2.36709 0.35284 24.90976 0 0 0
30 2.65505 0.86329 25.72818 0 0 0
31 2.58174 1.15112 26.70697 0 0 0
32 2.49807 0.47487 27.46699 0 0 0
33 2.11298 0.32408 28.35961 0 0 0
34 1.41664 0.53084 29.05627 0 0 0
35 1.21914 0.57130 29.99371 0 0 0
36 0.93982 0.75261 30.90017 0 0 0
37 0.49996 0.73345 31.75114 0 0 0
38 0.38409 0.70160 32.72546 0 0 0
39 0.42862 0.20367 33.56240 0 0 0
40 0.69711 -0.49855 34.10434 0 0 0
41 1.00818 -0.04723 34.89886 0 0 0
42 0.99245 -0.08627 35.83296 0 0 0
43 1.15231 0.32554 36.67885 0 0 0
44 1.26544 0.72214 37.65264 0 0 0
45 0.96140 0.48868 38.59767 0 0 0
46 1.14227 0.66125 39.57740 0 0 0
47 0.83136 0.70934 40.46950 0 0 0
48 1.66288 0.26124 40.78680 0 0 0
49 1.81110 0.03468 41.71784 0 0 0
50 2.25117 0.37987 42.54798 0 0 0
51 2.25333 0.34624 43.52260 0 0 0
52 2.24463 0.55623 44.47414 0 0 0
53 1.75312 0.17720 45.22003 0 0 0
54 1.23673 -0.58732 45.74823 0 0 0
55 1.05178 -0.51810 46.70591 0 0 0
56 0.85377 -0.40097 47.74840 0 0 0
57 0.86311 -0.49546 48.81863 0 0 0
58 0.87264 -0.88005 49.68825 0 0 0
59 0.46073 -1.17721 50.51168 0 0 0
60 0.16179 -1.60468 51.34536 0 0 0
61 -0.10938 -1.56680 52.33849 0 0 0
62 -0.05105 -1.28251 53.23750 0 0 0
63 -0.70297 -0.59598 53.47993 0 0 0
64 -0.84830 -0.55745 54.42604 0 0 0
65 -0.87982 -0.53635 55.42936 0 0 0
66 -0.55504 -0.90379 56.25373 0 0 0
67 -0.81762 -1.40850 57.05268 0 0 0
68 -1.27001 -1.02366 57.87167 0 0 0
69 -1.39593 -0.37961 58.62133 0 0 0
70 -1.12011 -0.00096 59.52998 0 0 0
71 -1.17261 0.40144 60.43531 0 0 0
72 -0.65843 0.57318 61.36662 0 0 0
73 -0.90245 0.90590 62.31873 0 0 0
74 -1.46371 1.00769 63.19639 0 0 0
75 -1.50716 0.88090 64.20545 0 0 0
76 -1.13611 0.86053 65.08184 0 0 0
77 -0.83735 0.38598 65.83830 0 0 0
78 -0.64617 0.61103 66.75340 0 0 0
79 -0.64276 0.35934 67.77823 0 0 0
80 -0.00379 0.00239 68.43316 0 0 0
81 -0.38060 -0.58331 69.06653 0 0 0
82 -0.13376 -0.89360 70.11021 0 0 0
83 -0.00160 -0.86895 71.15174 0 0 0
84 -0.05751 -0.88962 72.11778 0 0 0
85 -0.85561 -0.91700 72.74527 0 0 0
86 -1.06397 -0.49245 73.69014 0 0 0
87 -1.06735 -0.49068 74.70517 0 0 0
88 -0.90962 -0.69495 75.64177 0 0 0
89 -0.52278 -0.42156 76.51123 0 0 0
90 0.18918 -0.44166 77.35094 0 0 0
91 -0.12034 -0.44775 78.26656 0 0 0
92 -0.13905 -0.41704 79.21667 0 0 0
93 0.06631 -0.47271 80.19794 0 0 0
94 0.10247 0.18760 80.96437 0 0 0
95 0.49494 0.09367 81.84720 0 0 0
96 0.90817 -0.02847 82.75199 0 0 0
97 0.99432 -0.21046 83.71675 0 0 0
98 0.80610 -0.12882 84.66283 0 0 0
99 0.33831 -0.40612 85.50358 0 0 0
100 0.26397 -0.22625 86.50240 0 0 0
101 -0.12653 -0.29309 87.40914 0 0 0
102 -0.06002 -1.16071 86.96423 0 0 0
103 -0.14770 -1.90844 86.39370 0 0 0
104 0.28097 -2.51469 85.81248 0 0 0
105 0.42335 -3.07699 85.01450 0 0 0
106 -0.21326 -3.88333 84.90859 0 0 0
107 0.31822 -4.65185 84.54337 0 0 0
108 0.76731 -5.35250 84.01355 0 0 0
109 1.04619 -5.99128 83.36278 0 0 0
110 1.07334 -6.68500 82.63161 0 0 0
111 0.37029 -7.33514 82.49230 0 0 0
112 1.04110 -8.09020 82.25626 0 0 0
113 1.61407 -8.89468 82.03568 0 0 0
114 1.54729 -9.97689 82.13445 0 0 0
115 1.31109 -10.88649 82.44648 0 0 0
116 1.09048 -11.91996 82.46767 0 0 0
117 0.96124 -12.77274 82.04765 0 0 0
118 1.58894 -13.43481 81.63469 0 0 0
119 1.61322 -14.38367 81.93274 0 0 0
120 1.48072 -15.31094 81.52816 0 0 0
121 2.14337 -16.08786 81.44348 0 0 0
122 2.47235 -16.97535 81.38851 0 0 0
123 2.53936 -17.84391 80.99240 0 0 0
124 2.78163 -18.76566 81.26977 0 0 0
125 3.07081 -19.76780 81.22505 0 0 0
126 3.34948 -20.61176 80.92297 0 0 0
127 3.35938 -21.47176 80.40001 0 0 0
128 3.18820 -22.30953 80.96386 0 0 0
129 3.17803 -23.25155 81.07968 0 0 0
130 3.31930 -24.26075 81.17961 0 0 0
131 3.17005 -25.21740 81.53021 0 0 0
132 2.59354 -26.16776 81.50092 0 0 0
133 2.60698 -27.14024 81.36054 0 0 0
134 2.67831 -28.14543 81.42609 0 0 0
135 2.77258 -29.19323 81.50684 0 0 0
136 2.96129 -29.59563 80.66014 0 0 0
137 3.49699 -30.50056 80.68793 0 0 0
138 3.56753 -31.31522 81.18838 0 0 0
139 3.18760 -32.15728 80.84826 0 0 0
140 3.02211 -33.27671 81.05757 0 0 0
141 3.07815 -34.15756 80.72583 0 0 0
142 3.35803 -35.09936 80.58060 0 0 0
143 3.37065 -36.03026 80.18006 0 0 0
144 3.41143 -36.98798 79.96400 0 0 0
145 4.31748 -37.31789 80.27050 0 0 0
146 4.26817 -38.26436 80.11729 0 0 0
147 3.91569 -39.12278 80.33904 0 0 0
148 4.00274 -39.69458 79.59299 0 0 0
149 4.43393 -40.42164 79.99475 0 0 0
150 4.73656 -41.20550 79.59392 0 0 0
151 4.26603 -42.05292 79.47983 0 0 0
152 3.75351 -42.64635 78.85797 0 0 0
153 3.97369 -43.62137 78.62831 0 0 0
154 3.95776 -44.58953 78.61157 0 0 0
155 3.99539 -45.42923 78.04715 0 0 0
156 4.04208 -46.35037 77.72081 0 0 0
157 4.29131 -47.18672 77.22917 0 0 0
158 4.77812 -48.07393 77.20724 0 0 0
159 5.01775 -49.02808 77.24411 0 0 0
160 5.60880 -49.42384 76.57519 0 0 0
161 5.64851 -50.01684 75.84412 0 0 0
162 5.52884 -50.99076 75.60482 0 0 0
163 5.33060 -51.99239 75.57866 0 0 0
164 5.37105 -52.97165 75.68794 0 0 0
165 5.24904 -53.91808 75.61380 0 0 0
166 4.93722 -54.86073 75.54788 0 0 0
167 4.61976 -55.82931 75.36403 0 0 0
168 4.48227 -56.84667 74.96375 0 0 0
169 4.25417 -57.60235 74.38140 0 0 0
170 4.53154 -58.53736 74.14010 0 0 0
171 5.00301 -59.33111 74.16850 0 0 0
172 5.41527 -60.20380 74.19582 0 0 0
173 4.87324 -60.89418 74.76245 0 0 0
174 4.15587 -61.49360 74.34347 0 0 0
175 4.16501 -62.36824 74.74894 0 0 0
176 4.44063 -63.00488 74.02809 0 0 0
177 4.02764 -63.79996 73.59892 0 0 0
178 3.57136 -64.68396 73.56921 0 0 0
179 3.28842 -65.64419 73.57795 0 0 0
180 3.08231 -66.53555 73.37766 0 0 0
181 3.98758 -66.88226 73.30272 0 0 0
182 4.33412 -67.82169 73.36312 0 0 0
183 4.08139 -68.76243 73.27190 0 0 0
184 4.60620 -69.51759 72.76273 0 0 0
185 5.08570 -69.85251 73.49859 0 0 0
186 5.90198 -70.09590 74.03757 0 0 0
187 5.39927 -70.83678 73.61249 0 0 0
188 5.73305 -71.74052 73.59552 0 0 0
189 6.18288 -72.49679 73.24829 0 0 0
190 5.83728 -73.39565 73.11994 0 0 0
191 5.18961 -74.04409 72.70345 0 0 0
192 4.55135 -74.75907 72.72490 0 0 0
193 4.60411 -75.62027 72.29790 0 0 0
194 5.34418 -75.87152 71.67322 0 0 0
195 5.20124 -76.89331 71.51150 0 0 0
196 5.62194 -77.55330 70.92684 0 0 0
197 6.22247 -77.38595 70.10470 0 0 0
198 5.90847 -78.31148 69.84944 0 0 0
199 5.26791 -78.96085 70.21164 0 0 0
200 5.37087 -78.77008 71.12636 0 0 0
201 5.45020 -79.41761 71.84874 0 0 0
202 -0.81705 0.23901 87.98307 0 0 0
203 -1.62386 0.75494 87.95807 0 0 0
204 -2.23922 0.55601 88.69871 0 0 0
205 -3.14773 0.99218 89.19363 0 0 0
206 -3.98794 0.72349 89.62289 0 0 0
207 -4.72613 1.07005 90.07269 0 0 0
208 -5.65642 1.15446 90.61621 0 0 0
209 -6.42051 1.41807 91.17666 0 0 0
210 -7.23423 1.54717 91.76996 0 0 0
211 -8.09296 1.80666 92.09678 0 0 0
212 -8.97197 2.18230 91.99638 0 0 0
213 -9.72667 2.65166 92.48979 0 0 0
214 -10.23870 2.51627 93.50139 0 0 0
215 -11.18326 2.42908 93.86207 0 0 0
216 -12.09925 2.32744 94.15835 0 0 0
217 -13.12032 2.45670 94.61086 0 0 0
218 -13.87190 2.97044 95.05983 0 0 0
219 -14.61739 3.17423 95.83815 0 0 0
220 -15.44411 3.45656 96.45158 0 0 0
221 -16.39203 3.25668 96.91407 0 0 0
222 -17.37466 2.95276 97.03822 0 0 0
223 -18.32295 3.04632 97.24086 0 0 0
224 -19.20956 2.68789 97.61211 0 0 0
225 -19.95420 3.00007 98.19297 0 0 0
226 -20.69752 2.93305 98.76446 0 0 0
227 -21.77166 2.71345 99.06015 0 0 0
228 -22.74999 2.86664 99.43881 0 0 0
229 -23.54588 2.79625 100.02781 0 0 0
230 -24.49309 2.77453 99.98704 0 0 0
231 -25.29374 2.92977 100.67432 0 0 0
232 -26.19189 3.20718 100.70588 0 0 0
233 -27.23709 3.39982 100.38369 0 0 0
234 -28.03261 2.99716 100.70612 0 0 0
235 -28.76006 2.84586 101.48313 0 0 0
236 -29.63902 2.87287 101.97702 0 0 0
237 -30.30313 3.40599 102.50879 0 0 0
238 -31.10486 3.95131 102.75624 0 0 0
239 -31.99273 4.07686 103.10460 0 0 0
240 -32.83620 3.98732 103.71264 0 0 0
241 -33.62338 4.33207 104.24774 0 0 0
242 -34.25923 4.58652 104.95829 0 0 0
243 -34.97618 4.97731 105.62865 0 0 0
244 -35.91140 5.02337 106.16405 0 0 0
245 -36.91638 5.00974 106.22057 0 0 0
246 -37.80353 4.73528 106.50667 0 0 0
247 -38.67435 4.52180 106.72026 0 0 0
248 -39.59378 4.41080 106.76732 0 0 0
249 -40.48267 4.76333 106.81726 0 0 0
250 -41.29554 5.17622 107.24954 0 0 0
251 -42.11715 5.77119 107.56857 0 0 0
252 -42.96868 5.42423 107.86654 0 0 0
253 -43.84423 5.83074 108.30415 0 0 0
254 -44.76177 6.13058 108.52371 0 0 0
255 -45.54563 6.53899 108.83581 0 0 0
256 -46.28861 6.73185 109.39892 0 0 0
257 -47.20843 6.92083 109.74933 0 0 0
258 -47.56938 6.63385 110.69720 0 0 0
259 -48.63995 6.85626 110.80335 0 0 0
260 -49.45353 7.16479 111.47334 0 0 0
261 -50.20848 7.09571 112.07962 0 0 0
262 -50.55347 7.49688 112.85284 0 0 0
263 -51.27022 7.89792 113.45520 0 0 0
264 -52.10769 7.68460 113.98068 0 0 0
265 -53.11991 7.78673 114.11097 0 0 0
266 -54.05438 7.81753 113.84339 0 0 0
267 -54.91544 8.17570 114.01826 0 0 0
268 -55.77438 8.50880 113.71322 0 0 0
269 -56.58867 8.54024 114.22217 0 0 0
270 -57.41312 9.11860 114.31149 0 0 0
271 -58.38092 9.36206 114.49793 0 0 0
272 -59.25529 9.79021 115.04533 0 0 0
273 -59.71585 10.24527 115.74501 0 0 0
274 -60.41195 10.71392 116.28192 0 0 0
275 -61.28427 10.71830 116.69639 0 0 0
276 -62.31183 10.87680 116.84937 0 0 0
277 -63.03086 10.18155 117.00610 0 0 0
278 -63.98885 10.12539 117.27514 0 0 0
279 -64.89633 10.31967 117.56182 0 0 0
280 -65.59920 10.63420 118.21546 0 0 0
281 -66.21447 11.31676 118.57554 0 0 0
282 -67.01798 11.66036 119.00127 0 0 0
283 -67.81798 11.64489 119.57637 0 0 0
284 -68.52098 12.29379 119.74541 0 0 0
285 -69.30462 12.14073 120.26922 0 0 0
286 -70.20687 11.86093 120.51832 0 0 0
287 -71.14602 11.90083 120.40229 0 0 0
288 -72.13828 11.95651 120.64891 0 0 0
289 -72.99145 12.26390 120.33952 0 0 0
290 -73.63035 12.41478 121.09062 0 0 0
291 -74.12325 12.46260 121.92838 0 0 0
292 -74.91130 12.26793 122.41634 0 0 0
293 -75.44666 12.84993 122.94871 0 0 0
294 -76.25757 13.24892 123.24163 0 0 0
295 -77.13733 13.34043 123.64681 0 0 0
296 -77.51141 13.87614 124.37043 0 0 0
297 -78.36614 14.36798 124.77536 0 0 0
298 -79.04172 13.97820 125.33829 0 0 0
299 -79.94001 14.13138 125.10932 0 0 0
300 -80.39746 14.94815 125.25387 0 0 0
301 -81.05088 15.60082 125.08403 0 0 0
302 0.59708 -0.69909 88.07991 0 0 0
303 1.40553 -0.12026 88.68462 0 0 0
304 2.18906 0.27389 89.10911 0 0 0
305 3.12995 0.53739 89.24749 0 0 0
306 4.09440 0.77670 89.45764 0 0 0
307 4.82834 1.15926 90.13401 0 0 0
308 4.97636 1.92869 90.76976 0 0 0
309 5.63665 2.43576 91.41964 0 0 0
310 6.64205 2.48501 91.58027 0 0 0
311 7.20547 2.34537 92.37258 0 0 0
312 8.25451 2.30883 92.53294 0 0 0
313 9.02446 2.89889 92.92950 0 0 0
314 9.64083 3.34549 93.56133 0 0 0
315 10.33657 3.63755 94.25497 0 0 0
316 11.20736 3.67699 94.82118 0 0 0
317 12.20892 3.48919 94.98903 0 0 0
318 12.91492 3.45195 95.65238 0 0 0
319 13.58420 3.93465 96.26974 0 0 0
320 14.34811 3.88589 96.80222 0 0 0
321 15.33861 4.08305 97.11835 0 0 0
322 16.08947 4.60010 97.51075 0 0 0
323 16.88242 5.15603 97.86218 0 0 0
324 17.41236 5.15285 98.67417 0 0 0
325 18.28267 5.41134 99.13996 0 0 0
326 18.95984 5.98767 99.57095 0 0 0
327 19.63457 6.24820 100.24830 0 0 0
328 20.52958 6.49236 100.46625 0 0 0
329 21.32772 7.04977 100.60243 0 0 0
330 21.80994 7.15388 101.46849 0 0 0
331 22.83251 7.24077 101.86584 0 0 0
332 23.92911 7.18454 101.96096 0 0 0
333 24.86761 7.00631 102.30467 0 0 0
334 25.75866 7.43401 102.26828 0 0 0
335 26.75295 7.63406 102.08993 0 0 0
336 27.49131 7.43741 102.67337 0 0 0
337 28.03332 7.80106 103.39500 0 0 0
338 28.85628 8.09960 103.92217 0 0 0
339 29.64657 8.15442 104.57471 0 0 0
340 30.15290 8.19067 105.44670 0 0 0
341 31.04230 8.45523 105.97493 0 0 0
342 31.77864 8.73477 106.63082 0 0 0
343 32.24596 8.67882 107.47565 0 0 0
344 33.30095 8.70267 107.75956 0 0 0
345 34.09521 8.88620 108.30027 0 0 0
346 34.98810 8.90093 108.76259 0 0 0
347 35.81345 9.40517 108.67598 0 0 0
348 36.62860 9.87807 109.02031 0 0 0
349 37.40507 9.69220 109.60270 0 0 0
350 37.90934 10.17228 110.35738 0 0 0
351 38.70823 10.24869 111.02135 0 0 0
352 39.30952 10.37235 111.78098 0 0 0
353 40.18616 10.39139 112.17783 0 0 0
354 40.84608 11.12044 112.29104 0 0 0
355 41.63731 11.05618 112.87871 0 0 0
356 42.20074 11.25385 113.71806 0 0 0
357 42.95920 11.86868 114.05134 0 0 0
358 43.44731 12.22852 114.77107 0 0 0
359 44.31998 12.54810 115.18320 0 0 0
360 45.02304 12.92795 115.64967 0 0 0
361 45.85466 12.97474 116.21504 0 0 0
362 46.66531 13.13981 116.85037 0 0 0
363 47.31509 13.86317 117.17863 0 0 0
364 48.18882 14.27536 117.37823 0 0 0
365 48.86914 14.87858 117.93315 0 0 0
366 49.60300 15.41886 118.24377 0 0 0
367 50.51803 15.93425 118.30920 0 0 0
368 51.17075 16.44188 118.85871 0 0 0
369 51.98746 16.99536 119.16279 0 0 0
370 52.88142 16.82972 119.60800 0 0 0
371 52.99643 17.39747 120.41379 0 0 0
372 53.58056 17.24280 121.12598 0 0 0
373 54.49947 17.53052 121.39134 0 0 0
374 55.32397 17.56068 122.11524 0 0 0
375 55.65557 18.34533 122.75809 0 0 0
376 56.33593 19.04140 123.19274 0 0 0
377 56.35947 18.63958 124.12996 0 0 0
378 57.25185 18.81823 124.64610 0 0 0
379 58.06781 19.07868 125.11106 0 0 0
380 58.61531 20.00552 125.34646 0 0 0
381 59.25895 20.64837 125.67365 0 0 0
382 60.22220 20.63352 125.41543 0 0 0
383 60.89249 21.03690 126.00910 0 0 0
384 61.20653 20.82876 126.95332 0 0 0
385 61.92495 20.73075 127.51127 0 0 0
386 62.89368 20.69677 127.35151 0 0 0
387 63.70230 21.15444 127.67778 0 0 0
388 63.77586 22.07189 127.95447 0 0 0
389 64.74135 22.23282 127.97937 0 0 0
390 65.71159 22.28250 127.96260 0 0 0
391 66.21148 22.97029 128.48337 0 0 0
392 66.71087 22.70964 129.32260 0 0 0
393 67.61909 23.11526 129.42094 0 0 0
394 68.05872 23.76559 129.98955 0 0 0
395 68.65308 23.90155 129.25016 0 0 0
396 69.24883 24.22761 129.94758 0 0 0
397 70.11843 23.86034 130.31133 0 0 0
398 70.77410 23.64077 130.96236 0 0 0
399 71.23420 23.04470 131.78550 0 0 0
400 71.19764 22.18501 131.35713 0 0 0
401 70.23181 22.36526 131.51888 0 0 0
ITEM: TIMESTEP
2000
ITEM: NUMBER OF ATOMS
401
ITEM: BOX BOUNDS pp pp pp
-1.0000000000000000e+03 1.0000000000000000e+03