ITEM: TIMESTEP
0
ITEM: NUMBER OF ATOMS
101
ITEM: BOX BOUNDS pp pp pp
-1.0000000000000000e+03 1.0000000000000000e+03
-1.0000000000000000e+03 1.0000000000000000e+03
-1.0000000000000000e+03 1.0000000000000000e+03
ITEM: ATOMS id x y z ix iy iz
1 0.00000 0.00000 0.00000 0 0 0
2 0.00000 0.00000 1.00000 0 0 0
3 0.00000 -0.50000 1.86603 0 0 0
4 0.00000 0.00000 2.73205 0 0 0
5 0.00000 -0.50000 3.59808 0 0 0
6 0.00000 0.00000 4.46410 0 0 0
7 0.00000 -0.50000 5.33013 0 0 0
8 0.00000 0.00000 6.19615 0 0 0
9 0.00000 -0.50000 7.06218 0 0 0
10 0.00000 0.00000 7.92820 0 0 0
11 0.00000 -0.50000 8.79423 0 0 0
12 0.00000 0.00000 9.66025 0 0 0
13 0.00000 -0.50000 10.52628 0 0 0
14 0.00000 0.00000 11.39230 0 0 0
15 0.00000 -0.50000 12.25833 0 0 0
16 0.00000 0.00000 13.12436 0 0 0
17 0.00000 -0.50000 13.99038 0 0 0
18 0.00000 0.00000 14.85641 0 0 0
19 0.00000 -0.50000 15.72243 0 0 0
20 0.00000 0.00000 16.58846 0 0 0
21 0.00000 -0.50000 17.45448 0 0 0
22 0.00000 0.00000 18.32051 0 0 0
23 0.00000 -0.50000 19.18653 0 0 0
24 0.00000 0.00000 20.05256 0 0 0
25 0.00000 -0.50000 20.91858 0 0 0
26 0.00000 0.00000 21.78461 0 0 0
27 -0.89332 -0.09369 22.22415 0 0 0
28 -1.78665 -0.39460 22.55796 0 0 0
29 -2.67997 -0.25596 22.98545 0 0 0
30 -3.57330 -0.55687 23.31926 0 0 0
31 -4.46662 -0.41824 23.74675 0 0 0
32 -5.35995 -0.71914 24.08056 0 0 0
33 -6.25327 -0.58051 24.50806 0 0 0
34 -7.14659 -0.88142 24.84186 0 0 0
35 -8.03992 -0.74279 25.26936 0 0 0
36 -8.93324 -1.04369 25.60317 0 0 0
37 -9.82657 -0.90506 26.03066 0 0 0
38 -10.71989 -1.20597 26.36447 0 0 0
39 -11.61322 -1.06734 26.79197 0 0 0
40 -12.50654 -1.36824 27.12577 0 0 0
41 -13.39986 -1.22961 27.55327 0 0 0
42 -14.29319 -1.53052 27.88708 0 0 0
43 -15.18651 -1.39189 28.31457 0 0 0
44 -16.07984 -1.69279 28.64838 0 0 0
45 -16.97316 -1.55416 29.07588 0 0 0
46 -17.86649 -1.85507 29.40968 0 0 0
47 -18.75981 -1.71644 29.83718 0 0 0
48 -19.65313 -2.01734 30.17098 0 0 0
49 -20.54646 -1.87871 30.59848 0 0 0
50 -21.43978 -2.17962 30.93229 0 0 0
51 -22.33311 -2.04098 31.35978 0 0 0
52 0.18607 0.96719 21.61165 0 0 0
53 0.37214 1.89129 21.94545 0 0 0
54 0.55821 2.64242 21.31207 0 0 0
55 0.74428 3.56652 21.64588 0 0 0
56 0.93035 4.31765 21.01249 0 0 0
57 1.11642 5.24174 21.34630 0 0 0
58 1.30249 5.99288 20.71291 0 0 0
59 1.48856 6.91697 21.04672 0 0 0
60 1.67462 7.66810 20.41333 0 0 0
61 1.86069 8.59220 20.74714 0 0 0
62 2.04676 9.34333 20.11375 0 0 0
63 2.23283 10.26742 20.44756 0 0 0
64 2.41890 11.01856 19.81417 0 0 0
65 2.60497 11.94265 20.14798 0 0 0
66 2.79104 12.69378 19.51459 0 0 0
67 2.97711 13.61788 19.84840 0 0 0
68 3.16318 14.36901 19.21501 0 0 0
69 3.34925 15.29311 19.54882 0 0 0
70 3.53532 16.04424 18.91543 0 0 0
71 3.72139 16.96833 19.24924 0 0 0
72 3.90746 17.71947 18.61585 0 0 0
73 4.09353 18.64356 18.94966 0 0 0
74 4.27960 19.39469 18.31628 0 0 0
75 4.46567 20.31879 18.65008 0 0 0
76 4.65174 21.06992 18.01670 0 0 0
77 0.70725 -0.37279 22.38529 0 0 0
78 1.41451 -0.99598 22.71910 0 0 0
79 2.12176 -1.01849 23.42570 0 0 0
80 2.82902 -1.64168 23.75950 0 0 0
81 3.53627 -1.66419 24.46610 0 0 0
82 4.24353 -2.28738 24.79991 0 0 0
83 4.95078 -2.30988 25.50651 0 0 0
84 5.65804 -2.93307 25.84032 0 0 0
85 6.36529 -2.95558 26.54692 0 0 0
86 7.07255 -3.57877 26.88072 0 0 0
87 7.77980 -3.60128 27.58732 0 0 0
88 8.48706 -4.22447 27.92113 0 0 0
89 9.19431 -4.24698 28.62773 0 0 0
90 9.90157 -4.87016 28.96154 0 0 0
91 10.60882 -4.89267 29.66814 0 0 0
92 11.31608 -5.51586 30.00195 0 0 0
93 12.02333 -5.53837 30.70855 0 0 0
94 12.73059 -6.16156 31.04235 0 0 0
95 13.43784 -6.18407 31.74895 0 0 0
96 14.14510 -6.80726 32.08276 0 0 0
97 14.85235 -6.82976 32.78936 0 0 0
98 15.55961 -7.45295 33.12317 0 0 0
99 16.26686 -7.47546 33.82977 0 0 0
100 16.97412 -8.09865 34.16357 0 0 0
101 17.68137 -8.12116 34.87017 0 0 0
ITEM: TIMESTEP
1000
ITEM: NUMBER OF ATOMS
101
ITEM: BOX BOUNDS pp pp pp
-1.0000000000000000e+03 1.0000000000000000e+03
-1.0000000000000000e+03 1.0000000000000000e+03
-1.0000000000000000e+03 1.0000000000000000e+03
ITEM: ATOMS id x y z ix iy iz
1 1.85703 -0.38124 4.95034 0 0 0
2 0.99771 -0.04486 4.49565 0 0 0
3 0.15542 -0.11424 4.94442 0 0 0
4 -0.40237 -0.66460 5.66583 0 0 0
5 -0.76103 -1.47984 6.03544 0 0 0
6 -0.88541 -2.18684 6.72894 0 0 0
7 -0.50891 -2.70646 7.60648 0 0 0
8 -0.48618 -2.18565 8.49528 0 0 0
9 -0.48145 -1.83100 9.41622 0 0 0
10 0.04780 -1.57123 10.16228 0 0 0
11 0.20594 -1.51758 11.10638 0 0 0
12 0.07126 -1.00050 12.00253 0 0 0
13 0.62802 -0.67963 12.78637 0 0 0
14 0.79454 -0.46091 13.66343 0 0 0
15 1.64602 -0.54495 14.31396 0 0 0
16 0.77218 -0.72705 14.91532 0 0 0
17 -0.14891 -1.12535 15.06607 0 0 0
18 -0.27717 -1.67658 15.84963 0 0 0
19 -0.79379 -1.41202 16.65361 0 0 0
20 -1.35063 -1.54836 17.44889 0 0 0
21 -1.01524 -0.77498 17.97185 0 0 0
22 -1.35177 0.08456 18.40758 0 0 0
23 -1.41943 -0.20790 19.29875 0 0 0
24 -0.71153 -0.04007 19.93980 0 0 0
25 0.00917 0.34173 20.45429 0 0 0
26 -0.30961 0.66723 21.33863 0 0 0
27 -1.03708 0.03504 21.57328 0 0 0
28 -1.82885 -0.35477 21.23599 0 0 0
29 -2.22103 -0.58001 22.06391 0 0 0
30 -2.56569 -0.56288 23.04474 0 0 0
31 -3.15839 -0.35321 23.76775 0 0 0
32 -3.95914 -0.81522 23.84078 0 0 0
33 -4.91632 -0.69211 23.73540 0 0 0
34 -5.76344 -0.90760 24.21453 0 0 0
35 -6.50545 -1.46235 24.03746 0 0 0
36 -7.24514 -1.53930 24.64520 0 0 0
37 -8.00958 -1.80676 25.27876 0 0 0
38 -9.00031 -1.73426 25.53787 0 0 0
39 -9.84696 -1.26847 25.57780 0 0 0
40 -10.24595 -0.61248 26.21503 0 0 0
41 -11.17400 -0.86107 26.50793 0 0 0
42 -11.84218 -1.35709 26.91779 0 0 0
43 -12.79452 -1.12283 26.96116 0 0 0
44 -13.28786 -1.30401 27.75634 0 0 0
45 -13.38047 -0.96862 28.62156 0 0 0
46 -14.34881 -0.69890 28.71825 0 0 0
47 -15.43202 -0.50908 28.70242 0 0 0
48 -16.10616 -1.14943 29.03810 0 0 0
49 -16.96535 -1.53698 28.85661 0 0 0
50 -17.79719 -1.15903 28.54472 0 0 0
51 -18.23563 -0.39500 28.05335 0 0 0
52 0.09176 1.51863 20.89176 0 0 0
53 0.39716 2.45211 20.78683 0 0 0
54 0.27957 3.15968 21.55900 0 0 0
55 0.47257 3.95252 22.24439 0 0 0
56 0.73093 4.77336 21.79863 0 0 0
57 1.04120 5.72910 21.62555 0 0 0
58 1.01670 6.66686 21.51330 0 0 0
59 0.96722 7.50815 22.06771 0 0 0
60 0.87270 8.41833 21.68292 0 0 0
61 1.26154 9.23433 21.35785 0 0 0
62 1.60443 10.12957 21.30015 0 0 0
63 2.27925 10.83244 20.90348 0 0 0
64 1.95509 11.70319 20.47876 0 0 0
65 2.04838 12.14655 19.65260 0 0 0
66 2.91874 12.51938 19.46776 0 0 0
67 3.59798 13.14965 19.29201 0 0 0
68 4.54993 13.53868 19.24803 0 0 0
69 5.14961 14.19925 18.82900 0 0 0
70 5.39022 15.14830 18.88447 0 0 0
71 5.57220 16.06696 19.17375 0 0 0
72 5.76392 17.04772 19.01390 0 0 0
73 5.78215 18.04411 19.19674 0 0 0
74 6.33520 17.75933 18.48694 0 0 0
75 6.37177 17.86676 17.53512 0 0 0
76 7.16570 18.44953 17.31341 0 0 0
77 -0.06825 0.50863 22.29170 0 0 0
78 0.36134 0.40968 23.26649 0 0 0
79 0.91754 0.10087 23.99028 0 0 0
80 1.80366 -0.27955 24.26354 0 0 0
81 2.39654 -0.95338 23.96760 0 0 0
82 2.69942 -1.87898 24.08365 0 0 0
83 3.00207 -1.94748 25.04046 0 0 0
84 3.35453 -2.04691 25.94396 0 0 0
85 4.09984 -2.23805 26.66575 0 0 0
86 4.99410 -2.68541 26.77760 0 0 0
87 5.76560 -3.11154 27.08253 0 0 0
88 6.42763 -3.66557 27.50762 0 0 0
89 6.63834 -4.47893 28.01917 0 0 0
90 7.40068 -5.01158 28.60667 0 0 0
91 7.49225 -6.07778 28.61740 0 0 0
92 8.34235 -6.13865 29.10978 0 0 0
93 9.06272 -5.63294 28.74976 0 0 0
94 9.89647 -6.14188 28.95364 0 0 0
95 10.52996 -6.86791 28.61829 0 0 0
96 11.00690 -7.36220 29.26697 0 0 0
97 11.92103 -7.30442 29.60663 0 0 0
98 11.52545 -6.81818 30.31263 0 0 0
99 12.42419 -6.80312 30.62669 0 0 0
100 13.37492 -6.86649 30.49595 0 0 0
101 14.08408 -6.34377 30.07441 0 0 0
ITEM: TIMESTEP
2000
ITEM: NUMBER OF ATOMS
101
ITEM: BOX BOUNDS pp pp pp
-1.0000000000000000e+03 1.0000000000000000e+03
-1.0000000000000000e+03 1.0000000000000000e+03
-1.0000000000000000e+03 1.0000000000000000e+03
ITEM: ATOMS id x y z ix iy iz
1 -2.33300 -3.96953 6.40523 0 0 0
2 -1.89010 -3.78748 7.21843 0 0 0
3 -1.46366 -3.42291 8.06333 0 0 0
4 -1.30021 -2.46803 8.15622 0 0 0
5 -1.12881 -1.59721 8.60623 0 0 0
6 -0.64894 -0.73088 8.23331 0 0 0
7 -0.14733 -0.27488 8.97890 0 0 0
8 0.07522 -0.02771 9.91124 0 0 0
9 -0.34398 -0.37398 10.74347 0 0 0
10 -0.36493 -0.90555 11.53203 0 0 0
11 0.45520 -0.73448 11.99036 0 0 0
12 0.89394 -0.09592 12.61205 0 0 0
13 1.33849 0.01933 13.39660 0 0 0
14 1.72013 0.41573 14.23706 0 0 0
15 1.34255 0.75851 15.11480 0 0 0
16 0.95117 0.56850 16.03504 0 0 0
17 0.08207 0.99211 16.37903 0 0 0
18 -0.39850 0.53297 17.04123 0 0 0
19 -0.07741 -0.28068 17.37829 0 0 0
20 0.21435 -1.15886 17.51681 0 0 0
21 0.64845 -1.26719 18.35484 0 0 0
22 0.82629 -0.36682 18.46104 0 0 0
23 0.72528 -0.20163 19.40939 0 0 0
24 0.80978 0.11410 20.34946 0 0 0
25 0.19957 0.22049 21.21510 0 0 0
26 0.33518 0.87413 21.95967 0 0 0
27 -0.47253 0.62829 22.51658 0 0 0
28 -1.19882 0.50203 23.21735 0 0 0
29 -2.16721 0.18555 23.51894 0 0 0
30 -3.06281 -0.23494 23.62576 0 0 0
31 -3.30101 0.44411 22.99108 0 0 0
32 -4.16210 0.78970 22.87505 0 0 0
33 -4.97138 0.88088 23.32451 0 0 0
34 -5.64756 0.80620 24.15694 0 0 0
35 -5.93777 0.88164 25.08220 0 0 0
36 -6.80289 1.28516 24.72636 0 0 0
37 -7.76715 0.86241 24.64491 0 0 0
38 -8.70453 1.11944 24.72820 0 0 0
39 -9.47963 1.87066 24.74150 0 0 0
40 -10.27752 1.61107 25.36994 0 0 0
41 -10.72533 2.28392 26.01270 0 0 0
42 -10.52771 1.75380 26.84312 0 0 0
43 -10.79325 0.77568 26.87515 0 0 0
44 -11.11992 1.13820 26.05005 0 0 0
45 -12.11980 0.81994 25.74229 0 0 0
46 -12.76874 1.17502 26.34154 0 0 0
47 -13.39112 0.45229 26.78404 0 0 0
48 -13.77552 1.04442 27.36380 0 0 0
49 -14.31399 1.15005 28.16771 0 0 0
50 -14.89933 0.65543 28.75661 0 0 0
51 -14.76685 0.18618 29.62750 0 0 0
52 0.21789 1.88395 21.84074 0 0 0
53 -0.15031 2.65908 21.31790 0 0 0
54 -0.01027 3.64249 21.25216 0 0 0
55 0.00140 4.39947 20.69866 0 0 0
56 0.76733 4.37477 20.05331 0 0 0
57 0.90677 5.14204 20.62082 0 0 0
58 0.47642 6.02726 20.74944 0 0 0
59 1.00346 6.71240 21.21686 0 0 0
60 0.90091 7.49991 21.79236 0 0 0
61 1.35979 8.39701 22.17773 0 0 0
62 1.83861 8.88375 21.50040 0 0 0
63 2.58911 9.52922 21.34276 0 0 0
64 2.89655 10.23399 20.81152 0 0 0
65 3.30488 10.76505 20.14555 0 0 0
66 3.45911 11.38418 19.41280 0 0 0
67 2.88091 12.10646 19.01451 0 0 0
68 2.51325 12.64202 18.37301 0 0 0
69 2.48245 13.44130 17.81927 0 0 0
70 3.08083 14.26000 17.55924 0 0 0
71 3.73690 14.93212 17.13651 0 0 0
72 4.10968 15.36612 16.20430 0 0 0
73 4.65524 16.06763 16.79908 0 0 0
74 5.24566 16.87303 16.57585 0 0 0
75 5.37935 16.92751 17.61529 0 0 0
76 5.32939 17.87800 17.65936 0 0 0
77 0.94003 0.22886 22.45047 0 0 0
78 1.85224 -0.11103 22.28678 0 0 0
79 2.78577 -0.22938 21.97721 0 0 0
80 3.55052 0.23652 21.64835 0 0 0
81 3.89105 0.06712 22.55664 0 0 0
82 4.26969 -0.74305 22.76527 0 0 0
83 4.04778 -1.02150 23.73451 0 0 0
84 4.72070 -1.20909 24.40835 0 0 0
85 5.55335 -1.71947 24.64813 0 0 0
86 6.37943 -2.02291 24.99939 0 0 0
87 5.66044 -2.33290 25.58926 0 0 0
88 5.93838 -2.17883 26.48949 0 0 0
89 6.68545 -2.42707 27.21196 0 0 0
90 7.17309 -2.91209 27.81494 0 0 0
91 7.97373 -3.31808 28.29002 0 0 0
92 8.64460 -3.29068 28.94164 0 0 0
93 9.46554 -3.06122 28.50807 0 0 0
94 9.77933 -4.06942 28.40705 0 0 0
95 10.71986 -3.65012 28.58134 0 0 0
96 11.50643 -4.13250 28.34829 0 0 0
97 12.38040 -4.13615 27.88428 0 0 0
98 11.74213 -4.73794 27.46912 0 0 0
99 11.75157 -5.56606 28.12676 0 0 0
100 11.72654 -5.01393 28.94329 0 0 0
101 11.14989 -5.04499 29.71609 0 0 0
ITEM: TIMESTEP
3000
ITEM: NUMBER OF ATOMS
101
ITEM: BOX BOUNDS pp pp pp
-1.0000000000000000e+03 1.0000000000000000e+03
-1.0000000000000000e+03 1.0000000000000000e+03
-1.0000000000000000e+03 1.0000000000000000e+03
ITEM: ATOMS id x y z ix iy iz
1 -2.90698 -4.27739 7.18709 0 0 0
2 -2.20541 -3.64276 7.27901 0 0 0
3 -1.85336 -3.22887 8.14173 0 0 0
4 -1.20463 -2.50167 8.52412 0 0 0
5 -2.01182 -2.14118 8.97589 0 0 0
6 -1.94839 -2.81303 9.72068 0 0 0
7 -2.11946 -2.28892 10.51427 0 0 0
8 -1.48501 -1.95745 11.15903 0 0 0
9 -0.63509 -2.30113 11.22497 0 0 0
10 0.15019 -2.22485 11.86843 0 0 0
11 0.37720 -1.72704 12.68492 0 0 0
12 0.33696 -0.75134 12.95517 0 0 0
13 0.89507 -1.24395 13.56262 0 0 0
14 0.01194 -1.62764 13.79596 0 0 0
15 -0.73359 -1.70550 14.49882 0 0 0
16 -0.85417 -1.24622 15.33938 0 0 0
17 -0.44784 -1.53568 16.19074 0 0 0
18 -0.07049 -0.70829 16.70735 0 0 0
19 0.07276 -0.91187 17.72162 0 0 0
20 0.13929 -1.30353 18.64840 0 0 0
21 0.69514 -1.03713 19.34659 0 0 0
22 0.52487 -0.10046 19.30666 0 0 0
23 0.16530 0.78173 19.56996 0 0 0
24 -0.34099 1.33658 20.10078 0 0 0
25 0.05513 1.75031 20.94171 0 0 0
26 0.04814 2.21856 21.79198 0 0 0
27 -0.42275 1.45442 21.98863 0 0 0
28 -0.67581 0.42881 22.16589 0 0 0
29 -1.39434 -0.23088 22.39517 0 0 0
30 -2.36305 -0.06228 22.42195 0 0 0
31 -2.82179 0.05964 23.27117 0 0 0
32 -3.81441 0.15732 23.38685 0 0 0
33 -4.55873 -0.51855 23.61702 0 0 0
34 -4.77541 0.06383 24.35596 0 0 0
35 -5.64146 0.33786 24.79325 0 0 0
36 -5.39114 0.64170 25.65687 0 0 0
37 -6.36608 0.56187 25.55169 0 0 0
38 -7.36798 0.86781 25.56587 0 0 0
39 -7.29555 1.00612 24.63126 0 0 0
40 -7.63890 1.93786 24.78772 0 0 0
41 -8.17531 1.84753 25.60882 0 0 0
42 -8.81800 1.12614 25.69972 0 0 0
43 -9.74877 0.87041 25.29993 0 0 0
44 -10.00152 0.12906 24.58477 0 0 0
45 -10.95450 0.34201 24.57427 0 0 0
46 -11.44321 -0.23436 25.21231 0 0 0
47 -12.21949 0.15267 25.59413 0 0 0
48 -13.13949 0.14575 25.91275 0 0 0
49 -13.53060 1.03949 26.03964 0 0 0
50 -14.02342 1.49330 26.74804 0 0 0
51 -13.59625 0.68440 27.19360 0 0 0
52 -0.30922 2.99259 22.34073 0 0 0
53 0.33554 3.63437 22.42560 0 0 0
54 1.12791 4.16120 22.80249 0 0 0
55 1.29026 5.00021 23.37293 0 0 0
56 0.97313 5.71088 22.67269 0 0 0
57 0.99506 6.50450 22.03636 0 0 0
58 0.98727 7.41310 21.79506 0 0 0
59 0.95037 8.23009 21.20952 0 0 0
60 1.51758 7.89317 20.50059 0 0 0
61 1.39771 8.30449 19.65809 0 0 0
62 1.33957 9.24738 19.77668 0 0 0
63 1.68628 9.69414 20.57777 0 0 0
64 1.99147 10.42134 21.09027 0 0 0
65 2.92272 10.78044 21.16636 0 0 0
66 3.65149 11.42607 21.47353 0 0 0
67 4.60908 11.55230 21.59063 0 0 0
68 5.41947 11.30816 21.07529 0 0 0
69 5.97474 11.10342 20.30852 0 0 0
70 6.07848 11.86037 19.67431 0 0 0
71 6.03949 12.43237 18.89352 0 0 0
72 6.20150 13.17090 18.14662 0 0 0
73 6.40336 14.09167 17.92503 0 0 0
74 6.31847 14.18461 16.95878 0 0 0
75 6.89912 14.57530 16.19334 0 0 0
76 7.40393 14.30672 15.41542 0 0 0
77 0.87162 2.85591 21.97720 0 0 0
78 1.21675 2.55467 22.88396 0 0 0
79 1.45455 1.83424 23.49634 0 0 0
80 1.79229 1.17502 24.00068 0 0 0
81 2.79298 0.80522 24.06122 0 0 0
82 3.66691 0.33665 24.20583 0 0 0
83 4.41818 -0.35331 24.02617 0 0 0
84 5.34134 -0.59114 24.45362 0 0 0
85 5.54241 -0.47266 25.35679 0 0 0
86 6.19117 -1.13768 25.10077 0 0 0
87 7.14767 -0.93945 25.03480 0 0 0
88 7.64438 -1.73061 24.83041 0 0 0
89 6.96231 -2.55276 24.62233 0 0 0
90 7.29697 -2.33253 25.54786 0 0 0
91 8.15019 -2.74418 25.84180 0 0 0
92 7.36434 -2.79122 26.60080 0 0 0
93 7.20871 -3.49711 27.21006 0 0 0
94 8.11251 -3.64166 27.62456 0 0 0
95 8.88743 -3.30001 28.03378 0 0 0
96 9.31892 -2.50572 27.56058 0 0 0
97 9.76916 -2.02085 28.25758 0 0 0
98 9.78357 -1.79563 29.19753 0 0 0
99 9.67560 -2.70659 29.60550 0 0 0
100 9.68680 -3.63305 29.94748 0 0 0
101 8.97338 -4.33987 29.66532 0 0 0
ITEM: TIMESTEP
4000
ITEM: NUMBER OF ATOMS
101
ITEM: BOX BOUNDS pp pp pp
-1.0000000000000000e+03 1.0000000000000000e+03
-1.0000000000000000e+03 1.0000000000000000e+03
-1.0000000000000000e+03 1.0000000000000000e+03
ITEM: ATOMS id x y z ix iy iz
1 2.87916 -1.18224 9.89406 0 0 0
2 2.20549 -1.47348 9.17938 0 0 0
3 1.24310 -1.52163 9.46978 0 0 0
4 0.74341 -2.30207 9.66463 0 0 0
5 0.13087 -2.73270 10.32022 0 0 0
6 -0.24716 -3.46494 9.90801 0 0 0
7 -1.06265 -3.93242 9.67155 0 0 0
8 -1.75405 -4.41821 10.29345 0 0 0
9 -1.66459 -4.01690 11.18156 0 0 0
10 -1.59126 -3.43754 12.01038 0 0 0
11 -0.96078 -2.98581 12.49666 0 0 0
12 -0.44607 -2.61601 13.27828 0 0 0
13 -0.03387 -1.73789 13.37026 0 0 0
14 0.46637 -1.17275 12.60648 0 0 0
15 -0.04057 -0.53298 13.13609 0 0 0
16 0.62591 -0.69143 13.89385 0 0 0
17 0.79321 -0.69930 14.87190 0 0 0
18 0.97612 -0.40993 15.79435 0 0 0
19 1.21469 0.19907 16.45383 0 0 0
20 0.83908 0.41623 17.32355 0 0 0
21 -0.07521 0.66442 17.67534 0 0 0
22 -0.30233 0.82680 18.63979 0 0 0
23 -0.10844 1.72295 19.05378 0 0 0
24 0.74452 1.91812 19.47913 0 0 0
25 0.82533 1.91863 20.46814 0 0 0
26 0.47296 1.71932 21.44623 0 0 0
27 -0.48040 1.96272 21.35255 0 0 0
28 -1.42339 1.77122 21.39717 0 0 0
29 -2.31534 2.14498 21.12081 0 0 0
30 -3.26884 2.07545 21.39660 0 0 0
31 -3.99761 2.73604 21.14220 0 0 0
32 -3.84227 3.01412 22.13704 0 0 0
33 -4.22693 3.70788 22.84619 0 0 0
34 -4.83187 3.85140 22.09840 0 0 0
35 -5.13305 2.93228 22.25659 0 0 0
36 -5.97090 2.32480 22.16005 0 0 0
37 -5.90920 1.94148 23.08587 0 0 0
38 -6.19351 1.14967 23.56156 0 0 0
39 -7.07759 1.40692 23.89100 0 0 0
40 -8.07668 1.47409 23.75230 0 0 0
41 -8.86936 1.69467 23.20509 0 0 0
42 -9.61413 1.09125 23.47750 0 0 0
43 -10.45064 0.71523 23.83768 0 0 0
44 -11.09627 0.63982 24.52128 0 0 0
45 -11.76046 0.22612 23.92418 0 0 0
46 -12.36174 -0.44732 24.27332 0 0 0
47 -13.17729 -0.86262 23.85241 0 0 0
48 -13.77468 -1.67212 23.75465 0 0 0
49 -12.85940 -1.87667 23.71079 0 0 0
50 -12.48852 -2.17570 22.85896 0 0 0
51 -12.03776 -2.93293 22.47696 0 0 0
52 0.50436 2.46539 22.01956 0 0 0
53 0.57221 3.21434 22.58665 0 0 0
54 0.88457 4.07105 23.03377 0 0 0
55 1.32636 4.45185 22.29005 0 0 0
56 1.97865 5.07474 22.11654 0 0 0
57 2.19802 5.93931 21.65847 0 0 0
58 2.10134 6.85327 21.91868 0 0 0
59 2.31111 7.63571 21.21626 0 0 0
60 2.74138 8.53513 21.36008 0 0 0
61 3.14004 9.11964 21.99825 0 0 0
62 3.33403 10.14549 22.32056 0 0 0
63 3.64561 10.83857 22.83519 0 0 0
64 4.12814 10.83852 23.63426 0 0 0
65 4.58002 11.39200 22.97059 0 0 0
66 5.39289 11.79883 23.22310 0 0 0
67 5.55025 12.31249 22.35548 0 0 0
68 6.32565 11.72308 22.17442 0 0 0
69 6.67284 11.44335 21.24283 0 0 0
70 6.33039 11.38951 20.29153 0 0 0
71 5.46230 11.06679 19.86164 0 0 0
72 5.26532 10.97828 18.91240 0 0 0
73 4.75456 10.49088 18.26024 0 0 0
74 3.99407 10.11186 17.80018 0 0 0
75 4.37732 10.61644 17.08959 0 0 0
76 4.72184 11.29321 16.56656 0 0 0
77 1.41611 1.27245 21.65225 0 0 0
78 1.12907 1.60056 22.51318 0 0 0
79 1.56484 0.72965 22.75917 0 0 0
80 2.25227 0.63483 23.33907 0 0 0
81 2.56987 -0.37595 23.21155 0 0 0
82 3.07588 0.16765 22.57171 0 0 0
83 3.69152 0.44278 21.90300 0 0 0
84 4.44944 -0.13700 21.64318 0 0 0
85 3.49061 -0.39616 21.40836 0 0 0
86 4.08313 -1.17002 21.37003 0 0 0
87 4.67214 -1.79876 21.77753 0 0 0
88 4.86239 -1.67448 22.68012 0 0 0
89 5.41437 -1.85312 23.42162 0 0 0
90 5.50764 -1.97686 24.41120 0 0 0
91 5.92011 -2.48629 25.18493 0 0 0
92 6.66709 -2.02470 24.92480 0 0 0
93 7.15631 -1.10379 24.80758 0 0 0
94 6.98168 -0.13158 24.93694 0 0 0
95 7.43992 0.30083 25.71227 0 0 0
96 7.32445 0.01137 26.73650 0 0 0
97 7.34326 -0.21553 27.64950 0 0 0
98 8.20088 -0.45517 28.00161 0 0 0
99 7.71706 -0.04728 28.72638 0 0 0
100 8.03640 0.88505 28.68051 0 0 0
101 7.66003 1.30072 29.44340 0 0 0
ITEM: TIMESTEP
5000
ITEM: NUMBER OF ATOMS
101
ITEM: BOX BOUNDS pp pp pp
-1.0000000000000000e+03 1.0000000000000000e+03
-1.0000000000000000e+03 1.0000000000000000e+03
-1.0000000000000000e+03 1.0000000000000000e+03
ITEM: ATOMS id x y z ix iy iz
1 -0.56451 -0.42271 9.29627 0 0 0
2 -0.50010 0.41522 8.74931 0 0 0
3 -1.26574 0.78982 9.21567 0 0 0
4 -1.78635 0.58030 9.99195 0 0 0
5 -2.28364 -0.32031 10.07708 0 0 0
6 -2.83712 -1.07898 10.22298 0 0 0
7 -2.28796 -1.86693 10.51192 0 0 0
8 -2.04741 -1.55263 11.41065 0 0 0
9 -1.07029 -1.52538 11.67555 0 0 0
10 -0.87421 -2.01610 12.45457 0 0 0
11 -0.38918 -2.41695 13.25109 0 0 0
12 -0.05549 -1.76047 13.88692 0 0 0
13 0.48615 -0.93808 14.18765 0 0 0
14 -0.10040 -1.00933 14.94356 0 0 0
15 -0.89655 -0.98112 15.49984 0 0 0
16 -0.69159 -0.31427 16.21835 0 0 0
17 -1.12528 -0.09605 17.11352 0 0 0
18 -0.58449 0.71495 17.16327 0 0 0
19 -0.56409 1.69382 17.00452 0 0 0
20 -0.73157 2.39382 17.73187 0 0 0
21 -0.15268 3.09581 18.03700 0 0 0
22 0.45547 3.58145 18.55237 0 0 0
23 0.86146 2.89847 19.13245 0 0 0
24 0.42336 2.67221 19.96325 0 0 0
25 0.32678 2.70395 20.96007 0 0 0
26 -0.08004 2.52111 21.84986 0 0 0
27 -0.68491 2.51607 22.63924 0 0 0
28 -1.37105 3.20648 22.54679 0 0 0
29 -2.10652 2.79714 21.98686 0 0 0
30 -2.73652 3.15265 21.20246 0 0 0
31 -3.52277 3.66003 21.03367 0 0 0
32 -3.79197 4.54017 21.24119 0 0 0
33 -4.03943 4.29274 22.18942 0 0 0
34 -4.97844 4.08394 22.39372 0 0 0
35 -5.76850 3.38999 22.65961 0 0 0
36 -6.60492 3.12489 22.29140 0 0 0
37 -7.60298 3.07337 22.26488 0 0 0
38 -8.22375 2.35518 21.72857 0 0 0
39 -9.20784 2.68839 21.62100 0 0 0
40 -10.11597 2.37564 21.51644 0 0 0
41 -11.09356 2.20839 21.72940 0 0 0
42 -11.06162 1.32154 21.28515 0 0 0
43 -10.91489 0.40609 21.70980 0 0 0
44 -11.82061 0.24144 21.99907 0 0 0
45 -12.61995 -0.01660 22.52776 0 0 0
46 -12.75994 -0.88481 22.15959 0 0 0
47 -13.36291 -1.66650 22.28427 0 0 0
48 -13.55684 -2.15751 23.09643 0 0 0
49 -13.72726 -2.86049 23.67367 0 0 0
50 -14.06043 -3.44157 22.87869 0 0 0
51 -14.66318 -4.14016 22.60949 0 0 0
52 -0.38795 3.39723 21.58488 0 0 0
53 -0.72476 4.33733 21.61867 0 0 0
54 -0.37174 5.17377 21.40197 0 0 0
55 -0.00726 4.69888 20.61912 0 0 0
56 0.99856 4.96673 20.26455 0 0 0
57 1.46057 4.41061 19.65722 0 0 0
58 2.02929 4.12667 18.92264 0 0 0
59 2.54969 4.62890 18.31521 0 0 0
60 3.09131 5.45426 18.06465 0 0 0
61 2.96623 6.40178 18.26936 0 0 0
62 3.08633 7.19746 18.81365 0 0 0
63 3.73295 7.82924 19.13339 0 0 0
64 3.88670 8.63675 19.72613 0 0 0
65 3.86266 9.53731 19.99438 0 0 0
66 4.14535 10.44155 19.88261 0 0 0
67 4.68527 11.12936 19.51828 0 0 0
68 5.00597 11.94804 19.04217 0 0 0
69 5.67141 11.78054 18.39652 0 0 0
70 5.88991 11.77959 17.44030 0 0 0
71 5.41858 12.57269 17.16544 0 0 0
72 4.51585 12.39599 17.14579 0 0 0
73 3.66173 12.08110 16.86657 0 0 0
74 2.89835 11.77050 17.36062 0 0 0
75 2.18875 11.44490 17.95921 0 0 0
76 1.65295 10.77321 18.50737 0 0 0
77 0.27647 1.53653 21.68446 0 0 0
78 0.31904 0.93031 22.56044 0 0 0
79 0.49599 0.26204 23.23010 0 0 0
80 1.25236 0.16089 22.61689 0 0 0
81 2.25201 0.26035 22.61106 0 0 0
82 2.12875 -0.61451 22.41364 0 0 0
83 2.53022 -1.48760 22.55883 0 0 0
84 2.10126 -1.45568 23.38415 0 0 0
85 2.66845 -1.94978 24.00584 0 0 0
86 3.61249 -1.59904 23.72453 0 0 0
87 3.71426 -2.61403 24.00646 0 0 0
88 3.40681 -3.44471 24.31370 0 0 0
89 4.02382 -4.15249 24.50306 0 0 0
90 4.72078 -3.65096 24.01359 0 0 0
91 5.13280 -2.80617 24.02025 0 0 0
92 4.91504 -2.03848 24.58223 0 0 0
93 5.32162 -2.84599 25.07658 0 0 0
94 6.13460 -2.76275 25.51013 0 0 0
95 6.07691 -1.87626 25.04976 0 0 0
96 6.66427 -2.14057 24.32194 0 0 0
97 7.18248 -1.73482 25.09591 0 0 0
98 7.09465 -1.37868 26.01384 0 0 0
99 7.18977 -1.65021 26.97595 0 0 0
100 6.80823 -0.78461 26.92843 0 0 0
101 7.23074 -0.40598 26.12594 0 0 0
ITEM: TIMESTEP
6000
ITEM: NUMBER OF ATOMS
101
ITEM: BOX BOUNDS pp pp pp
-1.0000000000000000e+03 1.0000000000000000e+03
-1.0000000000000000e+03 1.0000000000000000e+03
-1.0000000000000000e+03 1.0000000000000000e+03
ITEM: ATOMS id x y z ix iy iz
1 -1.16600 2.57175 9.85331 0 0 0
2 -1.68508 1.98937 9.17602 0 0 0
3 -0.85747 1.63957 8.84775 0 0 0
4 -0.55917 1.07239 9.56223 0 0 0
5 -0.50984 0.08223 9.78125 0 0 0
6 -1.44723 -0.20126 9.60583 0 0 0
7 -1.38407 0.31066 10.43145 0 0 0
8 -1.62814 0.33648 11.40013 0 0 0
9 -1.34082 -0.04027 12.22876 0 0 0
10 -1.21939 0.14714 13.18738 0 0 0
11 -2.02267 -0.34637 13.42945 0 0 0
12 -2.67407 0.44516 13.40983 0 0 0
13 -2.84947 1.39021 13.43841 0 0 0
14 -2.48025 1.53746 14.35028 0 0 0
15 -2.01290 1.96219 15.15687 0 0 0
16 -1.71320 2.14613 16.09913 0 0 0
17 -1.15454 2.56323 16.84088 0 0 0
18 -1.24817 3.52888 17.06555 0 0 0
19 -0.44790 3.76431 17.58641 0 0 0
20 -1.14238 3.26687 18.05880 0 0 0
21 -0.56254 2.48555 18.48031 0 0 0
22 0.31238 2.31861 18.62477 0 0 0
23 0.23295 3.30272 18.58291 0 0 0
24 0.20476 2.93825 19.48290 0 0 0
25 -0.16700 3.25296 20.29187 0 0 0
26 -0.23208 3.21858 21.25931 0 0 0
27 -0.95184 3.80692 20.75268 0 0 0
28 -1.78879 3.85870 21.23965 0 0 0
29 -2.79845 4.02663 21.27650 0 0 0
30 -3.59440 3.40018 21.10628 0 0 0
31 -4.44209 3.87721 21.03035 0 0 0
32 -4.96845 4.38503 21.65692 0 0 0
33 -5.87942 4.53931 22.04805 0 0 0
34 -6.77066 4.68890 21.80723 0 0 0
35 -6.88833 3.76070 22.25910 0 0 0
36 -6.70835 3.03943 22.94759 0 0 0
37 -6.64039 2.02928 23.03532 0 0 0
38 -6.79442 1.33086 22.33791 0 0 0
39 -7.76004 1.21907 22.22400 0 0 0
40 -8.37326 1.73413 21.74612 0 0 0
41 -9.10391 1.26754 21.27776 0 0 0
42 -9.42744 0.60600 20.60668 0 0 0
43 -9.96774 -0.07443 20.21594 0 0 0
44 -10.56705 -0.71307 19.82303 0 0 0
45 -11.34048 -1.18305 20.22366 0 0 0
46 -11.84293 -2.00633 20.13237 0 0 0
47 -11.91662 -2.71297 20.81492 0 0 0
48 -12.04817 -2.95317 21.77095 0 0 0
49 -12.04150 -3.89827 22.04265 0 0 0
50 -12.57397 -3.80455 21.23622 0 0 0
51 -12.72844 -4.59679 20.59654 0 0 0
52 -0.05171 3.68080 22.05397 0 0 0
53 0.16356 4.12638 22.88904 0 0 0
54 0.55300 4.88810 22.56767 0 0 0
55 1.41270 5.29050 22.20614 0 0 0
56 1.28393 5.45034 21.29097 0 0 0
57 1.65377 5.35625 20.34926 0 0 0
58 1.33319 5.88891 19.54788 0 0 0
59 1.68605 5.45265 18.79660 0 0 0
60 2.41529 5.18891 18.16413 0 0 0
61 2.55296 5.76494 17.43998 0 0 0
62 2.58387 6.62985 17.98364 0 0 0
63 3.27673 7.35631 17.75108 0 0 0
64 4.15280 7.71935 17.91394 0 0 0
65 4.80933 8.14182 18.48794 0 0 0
66 4.90794 9.03150 18.27270 0 0 0
67 4.31480 9.77876 18.49586 0 0 0
68 3.85372 10.64640 18.61105 0 0 0
69 3.54915 11.35782 17.86117 0 0 0
70 3.86860 12.04786 17.29181 0 0 0
71 3.73558 12.97081 17.61372 0 0 0
72 3.46627 13.96003 17.59432 0 0 0
73 2.87064 14.22385 16.87857 0 0 0
74 2.59914 15.23369 16.79540 0 0 0
75 2.33625 16.13199 16.60609 0 0 0
76 1.99527 16.99757 16.45367 0 0 0
77 0.18373 2.50748 21.80899 0 0 0
78 -0.06357 1.67630 22.28421 0 0 0
79 0.22430 0.94163 22.82575 0 0 0
80 0.89466 0.55014 23.45386 0 0 0
81 0.54493 -0.37962 23.72290 0 0 0
82 1.29532 -0.51639 24.32485 0 0 0
83 2.20231 -0.95628 24.36555 0 0 0
84 2.88515 -1.75200 24.16627 0 0 0
85 3.80108 -2.08052 24.10318 0 0 0
86 4.48035 -2.38272 23.44111 0 0 0
87 5.46240 -2.46449 23.05739 0 0 0
88 6.12603 -2.60484 23.77461 0 0 0
89 5.53456 -3.25602 24.12333 0 0 0
90 5.18914 -3.87450 24.86981 0 0 0
91 5.10866 -3.44335 25.82828 0 0 0
92 4.30518 -2.92972 26.07379 0 0 0
93 5.15295 -2.46702 26.09747 0 0 0
94 5.75308 -2.52519 26.89727 0 0 0
95 6.51045 -2.31733 27.50410 0 0 0
96 6.98184 -2.28293 26.58837 0 0 0
97 7.77326 -1.71805 26.83063 0 0 0
98 8.30680 -1.17293 26.14603 0 0 0
99 8.60785 -0.51617 26.79136 0 0 0
100 8.15217 0.29133 27.06970 0 0 0
101 7.33954 0.77767 27.23517 0 0 0
ITEM: TIMESTEP
7000
ITEM: NUMBER OF ATOMS
101
ITEM: BOX BOUNDS pp pp pp
-1.0000000000000000e+03 1.0000000000000000e+03
-1.0000000000000000e+03 1.0000000000000000e+03
-1.0000000000000000e+03 1.0000000000000000e+03
ITEM: ATOMS id x y z ix iy iz
1 -2.91191 1.28164 13.04019 0 0 0
2 -2.46527 1.32181 12.14619 0 0 0
3 -2.32026 1.12723 11.20751 0 0 0
4 -1.41132 1.61822 11.20579 0 0 0
5 -1.36648 2.47085 11.70954 0 0 0
6 -0.62346 2.45311 12.36911 0 0 0
7 0.21282 2.90979 12.53990 0 0 0
8 0.30956 3.06728 13.53925 0 0 0
9 0.20678 2.90616 14.49495 0 0 0
10 -0.36557 2.31954 15.05064 0 0 0
11 0.06708 2.18082 15.82065 0 0 0
12 0.92356 2.59395 15.57417 0 0 0
13 0.27648 3.31769 15.76230 0 0 0
14 -0.05534 4.06465 16.33118 0 0 0
15 0.12732 3.96545 17.32551 0 0 0
16 -0.15991 3.12244 17.79115 0 0 0
17 -0.82606 3.15097 18.46774 0 0 0
18 -0.71706 2.15205 18.43200 0 0 0
19 -0.55325 1.39972 19.01562 0 0 0
20 -1.25141 1.69509 19.73537 0 0 0
21 -0.98785 0.94317 20.39047 0 0 0
22 -0.39205 1.26722 21.06096 0 0 0
23 -0.62217 0.44446 21.54856 0 0 0
24 -0.41877 0.46570 22.47116 0 0 0
25 -0.25879 1.49448 22.46494 0 0 0
26 -0.03447 1.91796 23.36649 0 0 0
27 -0.98593 2.16922 23.03691 0 0 0
28 -1.84865 2.31283 22.59841 0 0 0
29 -2.59448 2.75215 23.04033 0 0 0
30 -2.97379 2.87573 22.17272 0 0 0
31 -2.98792 3.82877 21.83276 0 0 0
32 -2.25828 3.61395 21.11762 0 0 0
33 -3.01870 3.61321 20.41635 0 0 0
34 -3.99902 3.42831 20.65363 0 0 0
35 -4.77977 3.52087 21.25534 0 0 0
36 -5.41759 2.84681 21.42105 0 0 0
37 -5.77197 2.98953 22.29116 0 0 0
38 -6.52885 2.89729 21.66625 0 0 0
39 -7.11496 2.20992 21.22791 0 0 0
40 -7.53049 1.64292 20.56191 0 0 0
41 -7.73751 1.12586 21.33983 0 0 0
42 -8.39041 0.60036 21.89415 0 0 0
43 -9.43758 0.56658 21.94920 0 0 0
44 -10.02419 1.29725 21.80572 0 0 0
45 -10.94288 1.33970 22.15055 0 0 0
46 -11.80531 1.69512 22.31031 0 0 0
47 -12.35019 2.23093 22.88131 0 0 0
48 -13.18707 2.47471 23.36770 0 0 0
49 -13.53520 1.61776 23.69020 0 0 0
50 -13.28476 1.29170 24.65019 0 0 0
51 -13.24517 1.98201 25.31156 0 0 0
52 0.47965 2.29239 22.68439 0 0 0
53 1.35901 2.26194 22.26973 0 0 0
54 1.50145 2.09335 21.26513 0 0 0
55 1.36456 2.15870 20.24502 0 0 0
56 0.94709 3.06482 19.95502 0 0 0
57 1.20177 3.90601 19.31254 0 0 0
58 1.62183 4.84439 19.09609 0 0 0
59 1.84873 5.76442 19.28395 0 0 0
60 2.38876 5.52630 18.55212 0 0 0
61 3.33856 5.23913 18.55255 0 0 0
62 3.99146 5.78818 18.04479 0 0 0
63 4.15240 5.92162 17.09866 0 0 0
64 3.75474 6.37464 16.35578 0 0 0
65 4.44213 7.14128 16.37076 0 0 0
66 5.07275 7.79628 16.61592 0 0 0
67 5.22741 8.78493 16.36199 0 0 0
68 5.33653 9.83455 16.55229 0 0 0
69 4.96321 10.74262 16.64344 0 0 0
70 4.29808 11.40403 16.56334 0 0 0
71 4.27470 11.87109 17.44655 0 0 0
72 4.39356 12.85315 17.23392 0 0 0
73 4.32472 13.67364 16.65024 0 0 0
74 4.07601 14.41069 16.03372 0 0 0
75 4.48106 14.89985 15.26643 0 0 0
76 4.00997 15.60895 14.80090 0 0 0
77 0.30426 1.20656 23.89579 0 0 0
78 0.99241 0.72901 23.43520 0 0 0
79 1.56868 -0.06920 23.67602 0 0 0
80 1.26567 -0.92043 23.98299 0 0 0
81 2.20520 -1.00993 23.66694 0 0 0
82 2.61201 -0.69154 24.57373 0 0 0
83 3.16388 -0.43734 23.85448 0 0 0
84 3.75590 -0.43275 23.03145 0 0 0
85 4.34771 -0.00979 23.61456 0 0 0
86 5.10295 0.59386 23.62317 0 0 0
87 5.44864 0.56622 22.69671 0 0 0
88 6.27832 0.01762 22.41567 0 0 0
89 6.44240 -0.78519 22.83982 0 0 0
90 6.67276 -0.25899 23.61859 0 0 0
91 5.84731 -0.57859 23.99878 0 0 0
92 5.30244 -1.29870 24.50716 0 0 0
93 6.15492 -1.63515 24.99766 0 0 0
94 5.62732 -0.90185 25.42711 0 0 0
95 5.80055 -0.90843 26.41388 0 0 0