ITEM: TIMESTEP
0
ITEM: NUMBER OF ATOMS
401
ITEM: BOX BOUNDS pp pp pp
-1.0000000000000000e+03 1.0000000000000000e+03
-1.0000000000000000e+03 1.0000000000000000e+03
-1.0000000000000000e+03 1.0000000000000000e+03
ITEM: ATOMS id x y z ix iy iz
1 0.00000 0.00000 0.00000 0 0 0
2 0.00000 0.00000 1.00000 0 0 0
3 0.00000 -0.50000 1.86603 0 0 0
4 0.00000 0.00000 2.73205 0 0 0
5 0.00000 -0.50000 3.59808 0 0 0
6 0.00000 0.00000 4.46410 0 0 0
7 0.00000 -0.50000 5.33013 0 0 0
8 0.00000 0.00000 6.19615 0 0 0
9 0.00000 -0.50000 7.06218 0 0 0
10 0.00000 0.00000 7.92820 0 0 0
11 0.00000 -0.50000 8.79423 0 0 0
12 0.00000 0.00000 9.66025 0 0 0
13 0.00000 -0.50000 10.52628 0 0 0
14 0.00000 0.00000 11.39230 0 0 0
15 0.00000 -0.50000 12.25833 0 0 0
16 0.00000 0.00000 13.12436 0 0 0
17 0.00000 -0.50000 13.99038 0 0 0
18 0.00000 0.00000 14.85641 0 0 0
19 0.00000 -0.50000 15.72243 0 0 0
20 0.00000 0.00000 16.58846 0 0 0
21 0.00000 -0.50000 17.45448 0 0 0
22 0.00000 0.00000 18.32051 0 0 0
23 0.00000 -0.50000 19.18653 0 0 0
24 0.00000 0.00000 20.05256 0 0 0
25 0.00000 -0.50000 20.91858 0 0 0
26 0.00000 0.00000 21.78461 0 0 0
27 -0.33120 0.93121 21.63243 0 0 0
28 -0.66241 1.81374 21.96623 0 0 0
29 -0.99361 2.54410 21.36883 0 0 0
30 -1.32482 3.42664 21.70264 0 0 0
31 -1.65602 4.15699 21.10524 0 0 0
32 -1.98723 5.03953 21.43905 0 0 0
33 -2.31843 5.76989 20.84165 0 0 0
34 -2.64964 6.65243 21.17546 0 0 0
35 -2.98084 7.38278 20.57806 0 0 0
36 -3.31205 8.26532 20.91187 0 0 0
37 -3.64325 8.99568 20.31447 0 0 0
38 -3.97446 9.87822 20.64827 0 0 0
39 -4.30566 10.60857 20.05088 0 0 0
40 -4.63687 11.49111 20.38468 0 0 0
41 -4.96807 12.22147 19.78728 0 0 0
42 -5.29928 13.10401 20.12109 0 0 0
43 -5.63048 13.83436 19.52369 0 0 0
44 -5.96169 14.71690 19.85750 0 0 0
45 -6.29289 15.44726 19.26010 0 0 0
46 -6.62410 16.32980 19.59391 0 0 0
47 -6.95530 17.06015 18.99651 0 0 0
48 -7.28651 17.94269 19.33032 0 0 0
49 -7.61771 18.67305 18.73292 0 0 0
50 -7.94892 19.55559 19.06673 0 0 0
51 -8.28012 20.28594 18.46933 0 0 0
52 0.92990 0.03316 22.15091 0 0 0
53 1.85981 -0.12128 22.48472 0 0 0
54 2.78971 0.09058 22.78537 0 0 0
55 3.71962 -0.06385 23.11918 0 0 0
56 4.64952 0.14801 23.41983 0 0 0
57 5.57943 -0.00643 23.75364 0 0 0
58 6.50933 0.20544 24.05429 0 0 0
59 7.43923 0.05100 24.38809 0 0 0
60 8.36914 0.26287 24.68874 0 0 0
61 9.29904 0.10843 25.02255 0 0 0
62 10.22895 0.32030 25.32320 0 0 0
63 11.15885 0.16586 25.65701 0 0 0
64 12.08875 0.37773 25.95766 0 0 0
65 13.01866 0.22329 26.29147 0 0 0
66 13.94856 0.43515 26.59212 0 0 0
67 14.87847 0.28072 26.92592 0 0 0
68 15.80837 0.49258 27.22657 0 0 0
69 16.73828 0.33814 27.56038 0 0 0
70 17.66818 0.55001 27.86103 0 0 0
71 18.59808 0.39557 28.19484 0 0 0
72 19.52799 0.60744 28.49549 0 0 0
73 20.45789 0.45300 28.82930 0 0 0
74 21.38780 0.66487 29.12995 0 0 0
75 22.31770 0.51043 29.46375 0 0 0
76 23.24761 0.72229 29.76440 0 0 0
77 -0.59870 -0.46365 22.43775 0 0 0
78 -1.19740 -1.19175 22.77155 0 0 0
79 -1.79610 -1.26672 23.56901 0 0 0
80 -2.39480 -1.99482 23.90282 0 0 0
81 -2.99350 -2.06979 24.70028 0 0 0
82 -3.59220 -2.79789 25.03408 0 0 0
83 -4.19090 -2.87285 25.83154 0 0 0
84 -4.78959 -3.60095 26.16535 0 0 0
85 -5.38829 -3.67592 26.96281 0 0 0
86 -5.98699 -4.40402 27.29661 0 0 0
87 -6.58569 -4.47899 28.09407 0 0 0
88 -7.18439 -5.20709 28.42788 0 0 0
89 -7.78309 -5.28205 29.22533 0 0 0
90 -8.38179 -6.01016 29.55914 0 0 0
91 -8.98049 -6.08512 30.35660 0 0 0
92 -9.57919 -6.81322 30.69041 0 0 0
93 -10.17789 -6.88819 31.48786 0 0 0
94 -10.77659 -7.61629 31.82167 0 0 0
95 -11.37529 -7.69126 32.61913 0 0 0
96 -11.97399 -8.41936 32.95294 0 0 0
97 -12.57269 -8.49432 33.75039 0 0 0
98 -13.17139 -9.22243 34.08420 0 0 0
99 -13.77009 -9.29739 34.88166 0 0 0
100 -14.36878 -10.02549 35.21547 0 0 0
101 -14.96748 -10.10046 36.01292 0 0 0
102 -14.85451 -11.00153 36.43163 0 0 0
103 -14.74153 -11.99123 36.34370 0 0 0
104 -14.62855 -12.56222 37.15684 0 0 0
105 -14.51557 -13.55192 37.06892 0 0 0
106 -14.40259 -14.12292 37.88206 0 0 0
107 -14.28961 -15.11262 37.79413 0 0 0
108 -14.17663 -15.68361 38.60727 0 0 0
109 -14.06365 -16.67331 38.51935 0 0 0
110 -13.95067 -17.24431 39.33249 0 0 0
111 -13.83769 -18.23401 39.24456 0 0 0
112 -13.72471 -18.80500 40.05770 0 0 0
113 -13.61173 -19.79470 39.96978 0 0 0
114 -13.49875 -20.36570 40.78292 0 0 0
115 -13.38577 -21.35540 40.69499 0 0 0
116 -13.27280 -21.92639 41.50814 0 0 0
117 -13.15982 -22.91609 41.42021 0 0 0
118 -13.04684 -23.48709 42.23335 0 0 0
119 -12.93386 -24.47679 42.14543 0 0 0
120 -12.82088 -25.04778 42.95857 0 0 0
121 -12.70790 -26.03748 42.87064 0 0 0
122 -12.59492 -26.60848 43.68378 0 0 0
123 -12.48194 -27.59818 43.59586 0 0 0
124 -12.36896 -28.16917 44.40900 0 0 0
125 -12.25598 -29.15887 44.32107 0 0 0
126 -12.14300 -29.72987 45.13421 0 0 0
127 -15.91886 -9.98258 35.72834 0 0 0
128 -16.87024 -9.73820 35.54082 0 0 0
129 -17.82161 -9.77841 35.23542 0 0 0
130 -18.77299 -9.53403 35.04791 0 0 0
131 -19.72436 -9.57423 34.74251 0 0 0
132 -20.67574 -9.32986 34.55499 0 0 0
133 -21.62712 -9.37006 34.24959 0 0 0
134 -22.57849 -9.12568 34.06208 0 0 0
135 -23.52987 -9.16589 33.75668 0 0 0
136 -24.48124 -8.92151 33.56916 0 0 0
137 -25.43262 -8.96172 33.26376 0 0 0
138 -26.38399 -8.71734 33.07624 0 0 0
139 -27.33537 -8.75754 32.77085 0 0 0
140 -28.28675 -8.51316 32.58333 0 0 0
141 -29.23812 -8.55337 32.27793 0 0 0
142 -30.18950 -8.30899 32.09041 0 0 0
143 -31.14087 -8.34920 31.78502 0 0 0
144 -32.09225 -8.10482 31.59750 0 0 0
145 -33.04363 -8.14502 31.29210 0 0 0
146 -33.99500 -7.90065 31.10458 0 0 0
147 -34.94638 -7.94085 30.79919 0 0 0
148 -35.89775 -7.69647 30.61167 0 0 0
149 -36.84913 -7.73668 30.30627 0 0 0
150 -37.80050 -7.49230 30.11875 0 0 0
151 -38.75188 -7.53251 29.81336 0 0 0
152 -14.72864 -9.39234 36.67740 0 0 0
153 -14.48979 -9.11133 37.60690 0 0 0
154 -14.25094 -8.16585 37.82830 0 0 0
155 -14.01210 -7.88484 38.75780 0 0 0
156 -13.77325 -6.93935 38.97920 0 0 0
157 -13.53440 -6.65834 39.90870 0 0 0
158 -13.29556 -5.71286 40.13009 0 0 0
159 -13.05671 -5.43185 41.05960 0 0 0
160 -12.81786 -4.48637 41.28099 0 0 0
161 -12.57902 -4.20536 42.21050 0 0 0
162 -12.34017 -3.25987 42.43189 0 0 0
163 -12.10132 -2.97886 43.36140 0 0 0
164 -11.86248 -2.03338 43.58279 0 0 0
165 -11.62363 -1.75237 44.51230 0 0 0
166 -11.38478 -0.80689 44.73369 0 0 0
167 -11.14594 -0.52588 45.66320 0 0 0
168 -10.90709 0.41961 45.88459 0 0 0
169 -10.66824 0.70062 46.81410 0 0 0
170 -10.42940 1.64610 47.03549 0 0 0
171 -10.19055 1.92711 47.96500 0 0 0
172 -9.95170 2.87260 48.18639 0 0 0
173 -9.71286 3.15361 49.11590 0 0 0
174 -9.47401 4.09909 49.33729 0 0 0
175 -9.23516 4.38010 50.26680 0 0 0
176 -8.99632 5.32558 50.48819 0 0 0
177 -9.83169 5.85527 50.63510 0 0 0
178 -10.66706 6.24053 51.02718 0 0 0
179 -11.50244 6.77271 50.88957 0 0 0
180 -12.33781 7.15797 51.28164 0 0 0
181 -13.17319 7.69015 51.14403 0 0 0
182 -14.00856 8.07541 51.53610 0 0 0
183 -14.84394 8.60759 51.39849 0 0 0
184 -15.67931 8.99285 51.79056 0 0 0
185 -16.51469 9.52503 51.65295 0 0 0
186 -17.35006 9.91029 52.04503 0 0 0
187 -18.18543 10.44247 51.90742 0 0 0
188 -19.02081 10.82773 52.29949 0 0 0
189 -19.85618 11.35991 52.16188 0 0 0
190 -20.69156 11.74518 52.55395 0 0 0
191 -21.52693 12.27735 52.41634 0 0 0
192 -22.36231 12.66262 52.80841 0 0 0
193 -23.19768 13.19479 52.67080 0 0 0
194 -24.03306 13.58006 53.06288 0 0 0
195 -24.86843 14.11223 52.92526 0 0 0
196 -25.70380 14.49750 53.31734 0 0 0
197 -26.53918 15.02968 53.17973 0 0 0
198 -27.37455 15.41494 53.57180 0 0 0
199 -28.20993 15.94712 53.43419 0 0 0
200 -29.04530 16.33238 53.82626 0 0 0
201 -29.88068 16.86456 53.68865 0 0 0
202 -8.47777 5.72471 49.73201 0 0 0
203 -7.95923 6.44845 49.27670 0 0 0
204 -7.44069 6.41602 48.42226 0 0 0
205 -6.92215 7.13976 47.96695 0 0 0
206 -6.40360 7.10732 47.11251 0 0 0
207 -5.88506 7.83107 46.65720 0 0 0
208 -5.36652 7.79863 45.80277 0 0 0
209 -4.84798 8.52238 45.34746 0 0 0
210 -4.32944 8.48994 44.49302 0 0 0
211 -3.81089 9.21368 44.03771 0 0 0
212 -3.29235 9.18124 43.18327 0 0 0
213 -2.77381 9.90499 42.72796 0 0 0
214 -2.25527 9.87255 41.87353 0 0 0
215 -1.73673 10.59630 41.41822 0 0 0
216 -1.21818 10.56386 40.56378 0 0 0
217 -0.69964 11.28760 40.10847 0 0 0
218 -0.18110 11.25517 39.25403 0 0 0
219 0.33744 11.97891 38.79872 0 0 0
220 0.85599 11.94647 37.94429 0 0 0
221 1.37453 12.67022 37.48898 0 0 0
222 1.89307 12.63778 36.63454 0 0 0
223 2.41161 13.36153 36.17923 0 0 0
224 2.93015 13.32909 35.32479 0 0 0
225 3.44870 14.05283 34.86948 0 0 0
226 3.96724 14.02039 34.01505 0 0 0
227 -8.44030 5.34360 51.31917 0 0 0
228 -7.88428 4.94371 52.04782 0 0 0
229 -7.32826 5.37480 52.75846 0 0 0
230 -6.77224 4.97491 53.48711 0 0 0
231 -6.21622 5.40600 54.19775 0 0 0
232 -5.66021 5.00612 54.92640 0 0 0
233 -5.10419 5.43721 55.63704 0 0 0
234 -4.54817 5.03732 56.36569 0 0 0
235 -3.99215 5.46841 57.07633 0 0 0
236 -3.43613 5.06852 57.80498 0 0 0
237 -2.88011 5.49961 58.51562 0 0 0
238 -2.32410 5.09973 59.24427 0 0 0
239 -1.76808 5.53082 59.95491 0 0 0
240 -1.21206 5.13093 60.68356 0 0 0
241 -0.65604 5.56202 61.39420 0 0 0
242 -0.10002 5.16213 62.12285 0 0 0
243 0.45599 5.59322 62.83349 0 0 0
244 1.01201 5.19334 63.56214 0 0 0
245 1.56803 5.62442 64.27278 0 0 0
246 2.12405 5.22454 65.00143 0 0 0
247 2.68007 5.65563 65.71207 0 0 0
248 3.23609 5.25574 66.44072 0 0 0
249 3.79210 5.68683 67.15136 0 0 0
250 4.34812 5.28694 67.88001 0 0 0
251 4.90414 5.71803 68.59065 0 0 0
252 5.86053 5.73905 68.29933 0 0 0
253 6.81693 5.90291 68.05754 0 0 0
254 7.77332 5.77545 67.79474 0 0 0
255 8.72972 5.93931 67.55296 0 0 0
256 9.68611 5.81185 67.29015 0 0 0
257 10.64250 5.97572 67.04837 0 0 0
258 11.59890 5.84826 66.78557 0 0 0
259 12.55529 6.01212 66.54378 0 0 0
260 13.51168 5.88466 66.28098 0 0 0
261 14.46808 6.04852 66.03919 0 0 0
262 15.42447 5.92106 65.77639 0 0 0
263 16.38087 6.08492 65.53461 0 0 0
264 17.33726 5.95746 65.27181 0 0 0
265 18.29365 6.12132 65.03002 0 0 0
266 19.25005 5.99386 64.76722 0 0 0
267 20.20644 6.15773 64.52543 0 0 0
268 21.16283 6.03026 64.26263 0 0 0
269 22.11923 6.19413 64.02085 0 0 0
270 23.07562 6.06667 63.75804 0 0 0
271 24.03201 6.23053 63.51626 0 0 0
272 24.98841 6.10307 63.25346 0 0 0
273 25.94480 6.26693 63.01167 0 0 0
274 26.90120 6.13947 62.74887 0 0 0
275 27.85759 6.30333 62.50708 0 0 0
276 28.81398 6.17587 62.24428 0 0 0
277 4.82604 5.19450 69.43907 0 0 0
278 4.74795 4.31690 69.91206 0 0 0
279 4.66985 4.28772 70.90858 0 0 0
280 4.59175 3.41012 71.38157 0 0 0
281 4.51365 3.38094 72.37808 0 0 0
282 4.43556 2.50334 72.85107 0 0 0
283 4.35746 2.47415 73.84759 0 0 0
284 4.27936 1.59655 74.32058 0 0 0
285 4.20126 1.56737 75.31710 0 0 0
286 4.12317 0.68977 75.79008 0 0 0
287 4.04507 0.66059 76.78660 0 0 0
288 3.96697 -0.21701 77.25959 0 0 0
289 3.88887 -0.24619 78.25611 0 0 0
290 3.81078 -1.12380 78.72909 0 0 0
291 3.73268 -1.15298 79.72561 0 0 0
292 3.65458 -2.03058 80.19860 0 0 0
293 3.57648 -2.05976 81.19512 0 0 0
294 3.49839 -2.93736 81.66811 0 0 0
295 3.42029 -2.96654 82.66462 0 0 0
296 3.34219 -3.84414 83.13761 0 0 0
297 3.26409 -3.87333 84.13413 0 0 0
298 3.18600 -4.75093 84.60712 0 0 0
299 3.10790 -4.78011 85.60364 0 0 0
300 3.02980 -5.65771 86.07662 0 0 0
301 2.95170 -5.68689 87.07314 0 0 0
302 4.58265 6.65225 68.74520 0 0 0
303 4.26117 7.38403 69.34616 0 0 0
304 3.93968 8.27036 69.01289 0 0 0
305 3.61819 9.00214 69.61385 0 0 0
306 3.29670 9.88847 69.28059 0 0 0
307 2.97521 10.62025 69.88154 0 0 0
308 2.65373 11.50658 69.54828 0 0 0
309 2.33224 12.23836 70.14923 0 0 0
310 2.01075 13.12469 69.81597 0 0 0
311 1.68926 13.85647 70.41692 0 0 0
312 1.36777 14.74280 70.08366 0 0 0
313 1.04629 15.47458 70.68461 0 0 0
314 0.72480 16.36091 70.35135 0 0 0
315 0.40331 17.09268 70.95230 0 0 0
316 0.08182 17.97902 70.61904 0 0 0
317 -0.23967 18.71079 71.21999 0 0 0
318 -0.56116 19.59712 70.88673 0 0 0
319 -0.88264 20.32890 71.48768 0 0 0
320 -1.20413 21.21523 71.15442 0 0 0
321 -1.52562 21.94701 71.75537 0 0 0
322 -1.84711 22.83334 71.42211 0 0 0
323 -2.16860 23.56512 72.02306 0 0 0
324 -2.49008 24.45145 71.68980 0 0 0
325 -2.81157 25.18323 72.29075 0 0 0
326 -3.13306 26.06956 71.95749 0 0 0
327 -3.04882 26.10227 70.96158 0 0 0
328 -2.96459 26.62855 70.11545 0 0 0
329 -2.88036 26.15892 69.23662 0 0 0
330 -2.79612 26.68519 68.39049 0 0 0
331 -2.71189 26.21556 67.51165 0 0 0
332 -2.62765 26.74184 66.66552 0 0 0
333 -2.54342 26.27221 65.78669 0 0 0
334 -2.45919 26.79849 64.94056 0 0 0
335 -2.37495 26.32886 64.06172 0 0 0
336 -2.29072 26.85514 63.21559 0 0 0
337 -2.20648 26.38551 62.33676 0 0 0
338 -2.12225 26.91178 61.49063 0 0 0
339 -2.03801 26.44215 60.61179 0 0 0
340 -1.95378 26.96843 59.76566 0 0 0
341 -1.86955 26.49880 58.88683 0 0 0
342 -1.78531 27.02508 58.04070 0 0 0
343 -1.70108 26.55545 57.16186 0 0 0
344 -1.61684 27.08173 56.31573 0 0 0
345 -1.53261 26.61210 55.43690 0 0 0
346 -1.44837 27.13837 54.59077 0 0 0
347 -1.36414 26.66874 53.71193 0 0 0
348 -1.27991 27.19502 52.86580 0 0 0
349 -1.19567 26.72539 51.98697 0 0 0
350 -1.11144 27.25167 51.14084 0 0 0
351 -1.02720 26.78204 50.26200 0 0 0
352 -2.58114 26.79859 72.36234 0 0 0
353 -2.02923 27.22753 73.07747 0 0 0
354 -1.47731 28.06131 73.06356 0 0 0
355 -0.92540 28.49025 73.77869 0 0 0
356 -0.37348 29.32403 73.76478 0 0 0
357 0.17844 29.75297 74.47991 0 0 0
358 0.73035 30.58675 74.46600 0 0 0
359 1.28227 31.01568 75.18112 0 0 0
360 1.83418 31.84947 75.16722 0 0 0
361 2.38610 32.27840 75.88234 0 0 0
362 2.93801 33.11219 75.86844 0 0 0
363 3.48993 33.54112 76.58356 0 0 0
364 4.04185 34.37491 76.56966 0 0 0
365 4.59376 34.80384 77.28478 0 0 0
366 5.14568 35.63762 77.27088 0 0 0
367 5.69759 36.06656 77.98600 0 0 0
368 6.24951 36.90034 77.97210 0 0 0
369 6.80142 37.32928 78.68722 0 0 0
370 7.35334 38.16306 78.67332 0 0 0
371 7.90526 38.59200 79.38844 0 0 0
372 8.45717 39.42578 79.37453 0 0 0
373 9.00909 39.85471 80.08966 0 0 0
374 9.56100 40.68850 80.07575 0 0 0
375 10.11292 41.11743 80.79088 0 0 0
376 10.66483 41.95122 80.77697 0 0 0
377 -4.09115 26.19542 72.21482 0 0 0
378 -5.04925 26.17575 72.50059 0 0 0
379 -6.00734 26.41340 72.66051 0 0 0
380 -6.96544 26.39373 72.94629 0 0 0
381 -7.92353 26.63138 73.10621 0 0 0
382 -8.88163 26.61171 73.39199 0 0 0
383 -9.83972 26.84937 73.55191 0 0 0
384 -10.79782 26.82970 73.83769 0 0 0
385 -11.75591 27.06735 73.99761 0 0 0
386 -12.71401 27.04768 74.28338 0 0 0
387 -13.67210 27.28533 74.44331 0 0 0
388 -14.63020 27.26566 74.72908 0 0 0
389 -15.58829 27.50332 74.88900 0 0 0
390 -16.54638 27.48365 75.17478 0 0 0
391 -17.50448 27.72130 75.33470 0 0 0
392 -18.46257 27.70163 75.62048 0 0 0
393 -19.42067 27.93929 75.78040 0 0 0
394 -20.37876 27.91962 76.06618 0 0 0
395 -21.33686 28.15727 76.22610 0 0 0
396 -22.29495 28.13760 76.51187 0 0 0
397 -23.25305 28.37525 76.67180 0 0 0
398 -24.21114 28.35558 76.95757 0 0 0
399 -25.16924 28.59324 77.11749 0 0 0
400 -26.12733 28.57357 77.40327 0 0 0
401 -27.08543 28.81122 77.56319 0 0 0
ITEM: TIMESTEP
1000
ITEM: NUMBER OF ATOMS
401
ITEM: BOX BOUNDS pp pp pp
-1.0000000000000000e+03 1.0000000000000000e+03
-1.0000000000000000e+03 1.0000000000000000e+03
-1.0000000000000000e+03 1.0000000000000000e+03
ITEM: ATOMS id x y z ix iy iz
1 -1.02388 -3.47416 6.47809 0 0 0
2 -1.25200 -2.56930 6.56835 0 0 0
3 -1.72189 -1.66461 6.70281 0 0 0
4 -0.84241 -1.26294 6.90535 0 0 0
5 -0.88934 -0.56643 7.64350 0 0 0
6 -1.34052 -0.78812 8.50757 0 0 0
7 -0.66964 -1.06983 9.13018 0 0 0
8 -0.23581 -1.90450 9.35824 0 0 0
9 0.27579 -1.86447 10.30389 0 0 0
10 0.63716 -1.44957 11.10575 0 0 0
11 0.66221 -0.59355 11.68372 0 0 0
12 0.69309 -1.25107 12.41109 0 0 0
13 1.28652 -0.55576 12.81402 0 0 0
14 1.00066 -0.05454 13.54774 0 0 0
15 0.86785 0.52258 14.30874 0 0 0
16 1.29950 0.65657 15.18363 0 0 0
17 1.67252 0.52193 16.06012 0 0 0
18 2.35660 0.65559 16.71583 0 0 0
19 2.53733 0.25521 17.60893 0 0 0
20 2.36854 -0.22482 18.38421 0 0 0
21 2.33469 -0.01568 19.40253 0 0 0
22 1.72335 -0.32324 20.21050 0 0 0
23 1.05191 0.21439 20.78975 0 0 0
24 0.77980 1.13255 21.06582 0 0 0
25 0.04093 0.70670 21.61862 0 0 0
26 0.39086 0.49888 22.48060 0 0 0
27 -0.11794 1.30570 22.55609 0 0 0
28 -0.36760 2.20762 22.24301 0 0 0
29 -1.03443 2.91168 22.09984 0 0 0
30 -0.78334 3.86266 22.08456 0 0 0
31 -0.93336 4.56828 22.69519 0 0 0
32 -1.40410 5.43874 22.47866 0 0 0
33 -1.49527 6.33594 22.05925 0 0 0
34 -2.05313 7.09971 22.30851 0 0 0
35 -2.47465 7.63596 21.63290 0 0 0
36 -2.84855 8.40776 21.17263 0 0 0
37 -3.16807 9.39170 21.06471 0 0 0
38 -3.54396 9.07248 21.94185 0 0 0
39 -4.06732 9.85304 22.03560 0 0 0
40 -3.82347 10.64325 21.45022 0 0 0
41 -3.35286 11.11711 20.67158 0 0 0
42 -3.82262 11.71932 21.28104 0 0 0
43 -3.86856 12.72279 21.58576 0 0 0
44 -4.37505 13.52855 21.69902 0 0 0
45 -4.48649 14.20322 21.00406 0 0 0
46 -3.58413 14.72318 20.77724 0 0 0
47 -3.61937 15.42687 20.13528 0 0 0
48 -3.38321 15.26492 19.18725 0 0 0
49 -3.92965 15.98600 18.91852 0 0 0
50 -4.28612 16.90966 19.09381 0 0 0
51 -4.14463 17.85067 19.25553 0 0 0
52 1.08962 0.14329 23.03885 0 0 0
53 1.75778 -0.30713 23.63919 0 0 0
54 2.75649 -0.03824 23.69355 0 0 0
55 3.74645 0.02801 23.81097 0 0 0
56 4.38452 0.84726 23.73880 0 0 0
57 5.21949 0.44883 23.89598 0 0 0
58 5.94784 0.92664 24.33784 0 0 0
59 6.67143 0.41697 24.58585 0 0 0
60 7.45626 -0.10334 24.80337 0 0 0
61 7.82046 -0.12735 25.70812 0 0 0
62 8.56840 0.30528 26.16167 0 0 0
63 9.17943 0.78436 25.65293 0 0 0
64 10.13073 1.05098 25.55776 0 0 0
65 10.59815 0.22101 25.26325 0 0 0
66 10.51542 -0.43312 26.02432 0 0 0
67 10.51127 -0.04869 26.94995 0 0 0
68 11.39183 0.26031 27.26382 0 0 0
69 12.18789 0.88239 27.16896 0 0 0
70 13.06629 0.45196 27.25050 0 0 0
71 13.81239 -0.11396 27.00655 0 0 0
72 14.32096 -0.95179 27.14717 0 0 0
73 15.01805 -1.07734 27.76751 0 0 0
74 15.78210 -0.57990 27.68020 0 0 0
75 15.76290 -0.27157 26.72378 0 0 0
76 16.38698 0.38446 26.61251 0 0 0
77 0.30323 -0.52694 22.67112 0 0 0
78 -0.60300 -0.88809 22.62316 0 0 0
79 -1.48637 -1.10692 22.71824 0 0 0
80 -2.15129 -1.51904 23.36904 0 0 0
81 -2.41041 -2.37493 23.93646 0 0 0
82 -3.12624 -2.80061 24.49026 0 0 0
83 -3.52111 -3.34590 25.19231 0 0 0
84 -3.95368 -3.69496 26.00811 0 0 0
85 -4.80727 -3.89412 26.55126 0 0 0
86 -5.38456 -4.58097 26.98075 0 0 0
87 -6.24565 -4.97170 27.44368 0 0 0
88 -6.77645 -5.59912 28.02419 0 0 0
89 -7.19877 -5.79663 28.94796 0 0 0
90 -8.01139 -5.77362 29.50624 0 0 0
91 -8.49763 -5.93227 30.33999 0 0 0
92 -8.87775 -6.08686 31.23953 0 0 0
93 -9.85272 -6.53414 31.28782 0 0 0
94 -10.67057 -6.77436 31.88104 0 0 0
95 -11.24963 -7.55491 32.06484 0 0 0
96 -12.02058 -7.72248 32.72260 0 0 0
97 -12.78759 -8.02297 33.32555 0 0 0
98 -12.89578 -8.52923 34.21664 0 0 0
99 -13.60002 -8.71778 34.93149 0 0 0
100 -14.30600 -9.04645 35.62405 0 0 0
101 -15.16739 -8.89983 36.10978 0 0 0
102 -14.70341 -9.35662 36.81912 0 0 0
103 -14.71110 -10.23604 37.37236 0 0 0
104 -13.91456 -10.56929 37.88821 0 0 0
105 -14.05611 -11.57292 37.91148 0 0 0
106 -14.33335 -12.11849 38.62895 0 0 0
107 -14.51408 -13.12753 38.66484 0 0 0
108 -14.86430 -13.89622 38.18744 0 0 0
109 -14.69938 -14.81959 38.53386 0 0 0
110 -14.29585 -15.39756 39.32845 0 0 0
111 -14.12273 -16.21240 39.83486 0 0 0
112 -13.78739 -16.80866 40.62068 0 0 0
113 -13.84434 -17.63017 41.11384 0 0 0
114 -14.44526 -18.37465 41.24021 0 0 0
115 -14.96591 -19.01837 41.78074 0 0 0
116 -15.12809 -20.01007 41.95507 0 0 0
117 -15.46479 -20.73352 42.48748 0 0 0
118 -15.30834 -21.15689 43.33390 0 0 0
119 -14.88380 -22.01351 43.41260 0 0 0
120 -15.10992 -22.68937 44.18872 0 0 0
121 -14.15756 -22.69515 43.98988 0 0 0
122 -13.76977 -23.58979 43.80878 0 0 0
123 -14.15597 -23.70341 44.80422 0 0 0
124 -14.09868 -23.24693 45.68878 0 0 0
125 -14.09775 -24.00602 46.39387 0 0 0
126 -14.27828 -24.96333 46.10785 0 0 0
127 -15.78861 -9.16646 35.44163 0 0 0
128 -16.46372 -9.62267 34.79489 0 0 0
129 -17.37053 -9.73686 35.14682 0 0 0
130 -17.87013 -10.49702 34.80180 0 0 0
131 -18.46934 -11.27143 34.52236 0 0 0
132 -19.37923 -11.79975 34.56132 0 0 0
133 -20.26207 -11.55305 34.28607 0 0 0
134 -20.92998 -11.08955 34.78411 0 0 0
135 -21.70928 -10.69739 34.33682 0 0 0
136 -22.58122 -10.59419 34.72168 0 0 0
137 -23.58388 -10.91146 34.86366 0 0 0
138 -24.50954 -10.90913 35.08445 0 0 0
139 -25.28303 -10.41253 34.68388 0 0 0
140 -25.86876 -9.75357 34.35848 0 0 0
141 -26.34913 -9.79740 33.53119 0 0 0
142 -27.24979 -9.89440 33.20003 0 0 0
143 -28.28105 -9.94359 33.30958 0 0 0
144 -29.13456 -9.78133 32.86823 0 0 0
145 -30.11433 -9.61857 32.57682 0 0 0
146 -30.78450 -9.97702 31.89214 0 0 0
147 -30.77469 -9.42988 31.00660 0 0 0
148 -31.31921 -8.69242 31.26837 0 0 0
149 -32.16316 -8.63716 31.64695 0 0 0
150 -32.72462 -8.74095 32.47325 0 0 0
151 -33.62205 -9.20560 32.50954 0 0 0
152 -15.36986 -8.36001 36.91191 0 0 0
153 -15.13390 -8.04173 37.80864 0 0 0
154 -14.69356 -7.51420 38.60344 0 0 0
155 -14.67785 -7.37760 39.56823 0 0 0
156 -14.62526 -6.49616 39.95820 0 0 0
157 -14.85512 -5.78688 40.60202 0 0 0
158 -14.28502 -5.47830 41.23062 0 0 0
159 -13.57029 -4.93250 41.67959 0 0 0
160 -13.08622 -4.00486 41.85001 0 0 0
161 -13.06707 -3.35515 42.64414 0 0 0
162 -12.56426 -3.40805 43.51704 0 0 0
163 -12.73668 -2.70152 44.20218 0 0 0
164 -12.65335 -1.97645 44.81277 0 0 0
165 -11.85012 -1.60380 45.13231 0 0 0
166 -12.07870 -0.89522 45.84577 0 0 0
167 -11.62231 -0.05255 46.28067 0 0 0
168 -11.02531 0.32046 46.90087 0 0 0
169 -10.77906 1.31320 46.75792 0 0 0
170 -10.70165 2.26780 46.97476 0 0 0
171 -10.36150 3.11992 47.39508 0 0 0
172 -9.84424 3.94498 47.56232 0 0 0
173 -9.16534 4.58228 47.85040 0 0 0
174 -9.16697 4.84631 48.72163 0 0 0
175 -9.04333 5.36110 49.62653 0 0 0
176 -8.42412 5.93349 50.09913 0 0 0
177 -9.25025 6.48310 50.07617 0 0 0
178 -10.22716 6.33586 49.92112 0 0 0
179 -10.82064 7.12997 49.88394 0 0 0
180 -11.25439 7.65045 50.71467 0 0 0
181 -12.08457 7.97482 51.09461 0 0 0
182 -12.93444 8.22372 51.51094 0 0 0
183 -13.47492 9.02704 51.36057 0 0 0
184 -13.86142 9.16972 52.24153 0 0 0
185 -14.78605 9.06438 51.91740 0 0 0
186 -15.68094 9.15818 51.49850 0 0 0
187 -16.34556 8.86251 50.82419 0 0 0
188 -16.99244 9.20474 51.52946 0 0 0
189 -17.88203 9.73811 51.74304 0 0 0
190 -18.60574 10.37790 51.96196 0 0 0
191 -19.53873 10.38456 52.30311 0 0 0
192 -20.52840 10.50110 52.26533 0 0 0
193 -20.66878 11.55135 52.55140 0 0 0
194 -21.58164 11.74426 52.32631 0 0 0
195 -22.28992 12.36824 52.67949 0 0 0
196 -22.84216 12.49217 53.51941 0 0 0
197 -22.40852 12.89135 54.29098 0 0 0
198 -21.87094 13.76896 54.27673 0 0 0
199 -22.80195 14.20931 54.39832 0 0 0
200 -23.68813 14.57285 54.38491 0 0 0
201 -23.93734 15.25555 53.68271 0 0 0
202 -7.89125 6.80714 50.00173 0 0 0
203 -7.47856 7.62824 49.66060 0 0 0
204 -6.59757 8.00046 50.18944 0 0 0
205 -6.32888 8.04155 49.20115 0 0 0
206 -5.98905 8.23587 48.31469 0 0 0
207 -5.41573 9.08662 48.48852 0 0 0
208 -5.40676 9.66245 47.74582 0 0 0
209 -4.86878 10.20366 47.18883 0 0 0
210 -4.40322 10.75128 46.41582 0 0 0
211 -3.75119 10.81112 45.63262 0 0 0
212 -3.40451 10.51453 44.69591 0 0 0
213 -3.15669 10.94802 43.84274 0 0 0
214 -2.73822 10.90980 42.94942 0 0 0
215 -2.15775 11.44195 42.38670 0 0 0
216 -2.06298 11.24916 41.40609 0 0 0
217 -2.23325 11.82084 40.61387 0 0 0
218 -2.29309 12.50301 39.89220 0 0 0
219 -2.29090 13.26894 39.21631 0 0 0
220 -2.16546 14.11241 38.71991 0 0 0
221 -1.59626 14.89451 39.09212 0 0 0
222 -0.76506 15.45935 39.10303 0 0 0
223 -0.57931 15.54898 38.22607 0 0 0
224 0.20838 15.11329 38.71007 0 0 0
225 0.69527 14.31998 38.66826 0 0 0
226 1.22237 14.14367 39.51143 0 0 0
227 -7.57716 5.79878 50.57759 0 0 0
228 -7.09020 5.52673 51.29961 0 0 0
229 -6.22860 5.22953 51.69699 0 0 0
230 -5.48516 4.82325 52.23078 0 0 0
231 -4.94122 4.89393 53.13200 0 0 0
232 -4.27960 5.08210 53.84956 0 0 0
233 -3.51253 5.09368 54.53761 0 0 0
234 -2.74701 5.03798 55.20725 0 0 0
235 -2.44159 5.45046 55.99712 0 0 0
236 -1.54744 5.51526 56.28074 0 0 0
237 -0.73154 5.09399 56.72918 0 0 0
238 -0.38098 5.48126 57.52079 0 0 0
239 -0.04217 5.46928 58.41029 0 0 0
240 0.61942 6.03269 58.96031 0 0 0
241 1.13155 6.42042 59.67064 0 0 0
242 1.26757 6.54209 60.65384 0 0 0
243 1.39271 6.49295 61.57971 0 0 0
244 2.14494 7.01006 62.14053 0 0 0
245 2.86025 7.51799 62.72606 0 0 0
246 3.61326 7.78765 63.32854 0 0 0
247 4.31077 7.92900 63.98977 0 0 0
248 4.67439 7.65635 64.85647 0 0 0
249 4.41367 7.29611 65.81140 0 0 0
250 4.16113 6.78664 66.61183 0 0 0
251 4.49850 6.58526 67.49095 0 0 0
252 5.40466 6.09497 67.16974 0 0 0
253 6.05164 5.45920 67.46835 0 0 0
254 6.42266 5.26526 66.56211 0 0 0
255 7.20461 5.00848 66.04013 0 0 0
256 8.04496 5.51077 65.88099 0 0 0
257 8.72073 4.84319 65.48268 0 0 0
258 9.54937 5.22319 65.73012 0 0 0
259 10.54327 5.31528 65.65926 0 0 0
260 11.18927 5.69199 65.14238 0 0 0
261 12.10896 5.30143 65.03438 0 0 0
262 12.86093 4.71169 65.11301 0 0 0
263 13.56043 4.53731 64.47655 0 0 0
264 14.53417 4.65819 64.52561 0 0 0
265 15.33355 5.09856 64.24564 0 0 0
266 16.15761 5.30834 64.85238 0 0 0
267 16.94802 5.85829 65.03160 0 0 0
268 17.60176 5.41885 65.74115 0 0 0
269 17.41055 4.55134 65.27631 0 0 0
270 18.09480 3.90918 65.57228 0 0 0
271 19.05517 4.07861 65.71412 0 0 0
272 19.97567 4.21016 66.00432 0 0 0
273 20.88690 3.95328 66.41616 0 0 0
274 21.79186 4.24359 66.56666 0 0 0
275 22.07501 4.00417 67.53461 0 0 0
276 22.34133 3.14805 67.89083 0 0 0
277 4.65163 5.97784 68.28345 0 0 0
278 3.92834 5.34047 68.49010 0 0 0
279 3.96653 5.19940 69.49324 0 0 0
280 3.70466 5.49322 70.40787 0 0 0
281 3.38460 5.35463 71.34300 0 0 0
282 3.51848 4.74203 72.10198 0 0 0
283 2.74507 4.32864 72.59779 0 0 0
284 2.86091 3.32807 72.62475 0 0 0
285 3.31418 2.89831 73.39935 0 0 0
286 3.94142 2.17694 73.93580 0 0 0
287 3.46147 1.64901 74.62774 0 0 0
288 3.24612 1.01373 75.30040 0 0 0
289 2.97220 0.95075 76.23547 0 0 0
290 3.10238 0.10534 76.72244 0 0 0
291 2.53524 -0.19766 77.50543 0 0 0
292 1.86270 -0.70421 77.99580 0 0 0
293 1.62927 -1.49474 78.55838 0 0 0
294 1.95643 -2.34948 79.02876 0 0 0
295 2.06085 -2.70048 80.02132 0 0 0
296 2.73769 -3.05732 80.53775 0 0 0
297 3.65133 -2.77158 80.56192 0 0 0
298 4.04748 -3.32048 81.25245 0 0 0
299 3.30724 -3.86735 81.54709 0 0 0
300 2.51735 -3.88660 82.11913 0 0 0
301 2.02025 -4.51236 82.67823 0 0 0
302 4.11085 7.51112 67.62562 0 0 0
303 3.49846 8.26444 67.56986 0 0 0
304 3.61753 8.90698 68.35005 0 0 0
305 3.37166 9.65030 68.93204 0 0 0
306 3.05433 10.40356 68.44633 0 0 0
307 2.69978 11.29792 68.38176 0 0 0
308 1.99088 11.88211 68.11394 0 0 0
309 1.95154 12.64049 68.72438 0 0 0
310 2.03495 13.37733 69.31904 0 0 0
311 1.77031 14.13041 69.87215 0 0 0
312 1.72554 14.96662 70.40379 0 0 0
313 0.89549 15.40744 70.34270 0 0 0
314 0.25741 16.17257 70.40119 0 0 0
315 -0.34684 16.91644 70.19953 0 0 0
316 -0.80025 17.69164 69.80038 0 0 0
317 -0.67628 18.70639 69.81487 0 0 0
318 -0.86440 19.55048 69.35417 0 0 0
319 -1.77322 19.83623 69.18645 0 0 0
320 -1.65357 20.71416 68.86622 0 0 0
321 -1.94832 21.52879 69.13531 0 0 0
322 -2.58230 22.06607 69.53539 0 0 0
323 -2.53461 23.05519 69.42649 0 0 0
324 -2.24737 23.74129 70.13528 0 0 0
325 -2.44936 24.30321 70.91178 0 0 0
326 -2.50403 25.21382 71.31829 0 0 0
327 -2.98877 25.53131 70.52200 0 0 0
328 -2.86531 25.48752 69.58400 0 0 0
329 -2.75205 25.14436 68.73378 0 0 0
330 -2.49001 25.69095 67.94125 0 0 0
331 -2.43777 24.85403 67.50972 0 0 0
332 -2.63269 24.76451 66.53571 0 0 0
333 -2.66327 24.88786 65.52364 0 0 0
334 -2.94978 24.41478 64.68056 0 0 0
335 -3.47087 24.12564 63.84083 0 0 0
336 -2.78262 24.70768 63.30216 0 0 0
337 -2.21497 24.94095 62.54039 0 0 0
338 -2.05472 25.24855 61.63952 0 0 0
339 -1.37706 25.36069 60.97995 0 0 0
340 -0.73800 25.46982 60.18924 0 0 0
341 0.05868 25.54985 59.71935 0 0 0
342 0.67373 25.57846 58.84208 0 0 0
343 1.10708 25.55564 57.95273 0 0 0
344 1.58836 25.74298 57.18636 0 0 0
345 1.26746 26.21587 56.39584 0 0 0
346 0.39771 26.19455 56.10451 0 0 0
347 -0.34181 25.65355 55.81507 0 0 0
348 -1.17643 26.07230 55.94192 0 0 0
349 -1.65848 26.69244 55.38535 0 0 0
350 -1.36559 27.01032 54.52945 0 0 0
351 -0.76179 26.48229 54.01706 0 0 0
352 -1.73949 25.75031 71.21612 0 0 0
353 -0.74269 25.55296 70.82917 0 0 0
354 0.02704 26.01686 71.24867 0 0 0
355 0.39631 26.91835 71.27876 0 0 0
356 0.58081 27.41251 72.12864 0 0 0
357 0.60100 27.80070 72.98955 0 0 0
358 1.14143 28.45745 72.44467 0 0 0
359 1.20085 29.40951 72.89230 0 0 0
360 2.16797 29.35106 73.16679 0 0 0
361 2.74847 30.07271 73.61843 0 0 0
362 2.74613 31.09531 73.84134 0 0 0
363 3.02689 31.38821 74.73460 0 0 0
364 3.21487 32.25629 75.00876 0 0 0
365 3.11207 33.11340 75.65177 0 0 0
366 3.42015 33.85713 76.23002 0 0 0
367 4.15715 34.06159 76.83132 0 0 0
368 4.64962 34.76118 76.39801 0 0 0
369 5.25968 35.57102 76.23254 0 0 0
370 4.96697 36.57139 76.25070 0 0 0
371 4.60680 37.36389 76.66148 0 0 0
372 5.13024 38.25404 76.89776 0 0 0
373 5.98673 38.24561 77.38426 0 0 0
374 6.90200 38.45650 77.67022 0 0 0
375 6.59888 39.30301 78.16026 0 0 0
376 6.23293 40.17475 78.36843 0 0 0
377 -3.08968 25.50126 72.12034 0 0 0
378 -3.78933 25.75657 72.69314 0 0 0
379 -4.66381 25.46226 73.16340 0 0 0
380 -5.65504 25.67755 73.23337 0 0 0
381 -6.08985 26.26237 73.82132 0 0 0
382 -6.88596 26.73183 73.29847 0 0 0
383 -7.59432 27.36877 73.35393 0 0 0
384 -8.54445 27.43961 73.65506 0 0 0
385 -9.49559 27.17658 73.86415 0 0 0
386 -10.41434 27.04255 73.67909 0 0 0
387 -11.17493 26.51086 73.52129 0 0 0
388 -12.00312 27.07529 73.48550 0 0 0
389 -12.89608 27.02566 72.81071 0 0 0
390 -13.56782 26.96736 73.49241 0 0 0
391 -14.41996 26.93597 73.75929 0 0 0
392 -15.23559 26.55789 74.11586 0 0 0
393 -15.98489 26.64991 74.80440 0 0 0
394 -16.60151 26.95577 75.47227 0 0 0
395 -17.09900 27.72310 75.06527 0 0 0
396 -17.65771 28.45876 74.80410 0 0 0
397 -17.87769 29.38263 75.09197 0 0 0
398 -18.71710 29.65377 74.78780 0 0 0
399 -19.73293 29.46407 74.91469 0 0 0
400 -20.25875 30.17021 74.55128 0 0 0
401 -20.15119 31.15415 74.66838 0 0 0
ITEM: TIMESTEP
2000
ITEM: NUMBER OF ATOMS
401
ITEM: BOX BOUNDS pp pp pp
-1.0000000000000000e+03 1.0000000000000000e+03
-1.0000000000000000e+03 1.0000000000000000e+03
-1.0000000000000000e+03 1.0000000000000000e+03
ITEM: ATOMS id x y z ix iy iz
1 -1.97430 -1.45573 8.10060 0 0 0