ITEM: TIMESTEP
0
ITEM: NUMBER OF ATOMS
97
ITEM: BOX BOUNDS pp pp pp
-1.0000000000000000e+03 1.0000000000000000e+03
-1.0000000000000000e+03 1.0000000000000000e+03
-1.0000000000000000e+03 1.0000000000000000e+03
ITEM: ATOMS id x y z ix iy iz
45 8.08664 -0.95644 -0.43666 0 0 0
46 8.35146 -1.61934 -1.13697 0 0 0
47 8.61628 -1.34432 -2.06121 0 0 0
48 8.88110 -2.00722 -2.76152 0 0 0
49 9.14592 -1.73219 -3.68576 0 0 0
71 0.87635 4.16298 -0.32463 0 0 0
72 0.10318 3.99853 -0.93714 0 0 0
73 -0.66998 4.44676 -1.38581 0 0 0
1 0.00000 0.00000 0.00000 0 0 0
2 0.00000 0.00000 1.00000 0 0 0
3 0.00000 -0.50000 1.86603 0 0 0
4 0.00000 0.00000 2.73205 0 0 0
5 0.00000 -0.50000 3.59808 0 0 0
6 0.00000 0.00000 4.46410 0 0 0
7 0.00000 -0.50000 5.33013 0 0 0
8 -0.85250 -1.01527 5.41808 0 0 0
9 -1.70501 -1.50548 5.23662 0 0 0
10 -2.55751 -1.90774 5.57043 0 0 0
11 -3.41002 -2.39795 5.38897 0 0 0
12 -4.26252 -2.80021 5.72278 0 0 0
13 -5.11502 -3.29042 5.54132 0 0 0
14 0.07789 0.14666 6.08892 0 0 0
15 0.15578 0.32728 7.06938 0 0 0
16 0.23366 1.26670 7.40319 0 0 0
17 0.31155 1.44732 8.38365 0 0 0
18 0.38944 2.38674 8.71746 0 0 0
19 0.46733 2.56736 9.69793 0 0 0
20 0.77462 -1.13210 5.35063 0 0 0
21 1.54923 -1.68977 5.05234 0 0 0
22 2.32385 -2.22693 5.38615 0 0 0
23 3.09846 -2.78459 5.08785 0 0 0
24 3.87308 -3.32176 5.42166 0 0 0
25 4.64770 -3.87942 5.12337 0 0 0
26 4.31547 -4.76314 4.79372 0 0 0
27 3.98325 -5.36364 4.06638 0 0 0
28 3.65103 -6.29379 4.22276 0 0 0
29 3.31881 -6.89429 3.49541 0 0 0
30 2.98658 -7.82444 3.65179 0 0 0
31 2.65436 -8.42494 2.92445 0 0 0
32 5.27075 -4.02375 5.89211 0 0 0
33 5.89381 -4.53312 6.48570 0 0 0
34 6.51686 -4.27374 7.22362 0 0 0
35 7.13992 -4.78311 7.81721 0 0 0
36 7.76298 -4.52373 8.55512 0 0 0
37 8.38603 -5.03310 9.14871 0 0 0
38 5.13258 -3.40983 4.38555 0 0 0
39 5.61746 -2.63424 3.98138 0 0 0
40 6.10234 -2.59647 3.10762 0 0 0
41 6.58723 -1.82088 2.70345 0 0 0
42 7.07211 -1.78311 1.82969 0 0 0
43 7.55699 -1.00753 1.42551 0 0 0
44 7.82181 -1.23147 0.48758 0 0 0
50 8.37574 -0.80838 1.96402 0 0 0
51 9.19449 -0.90516 2.52996 0 0 0
52 10.01324 -0.46344 2.89674 0 0 0
53 10.83199 -0.56022 3.46268 0 0 0
54 11.65074 -0.11850 3.82946 0 0 0
55 12.46949 -0.21528 4.39540 0 0 0
56 6.95899 -0.20605 1.42020 0 0 0
57 6.36100 0.49071 1.81633 0 0 0
58 5.76300 1.18216 1.41099 0 0 0
59 5.16500 1.87892 1.80712 0 0 0
60 4.56700 2.57036 1.40178 0 0 0
61 3.96900 3.26712 1.79791 0 0 0
62 3.63025 2.95154 2.68428 0 0 0
63 3.29151 2.23505 3.29411 0 0 0
64 2.95276 2.40493 4.21953 0 0 0
65 2.61401 1.68844 4.82936 0 0 0
66 2.27527 1.85832 5.75477 0 0 0
67 1.93652 1.14183 6.36460 0 0 0
68 3.19584 3.43096 1.18523 0 0 0
69 2.42267 3.87919 0.73656 0 0 0
70 1.64951 3.71475 0.12405 0 0 0
74 4.48206 4.11661 1.92091 0 0 0
75 4.99513 4.79079 2.45218 0 0 0
76 5.50819 5.58798 2.13396 0 0 0
77 6.02125 6.26216 2.66523 0 0 0
78 6.53432 7.05934 2.34700 0 0 0
79 7.04738 7.73352 2.87827 0 0 0
80 7.90097 7.95180 2.40526 0 0 0
81 8.75456 8.37733 2.10476 0 0 0
82 9.60815 8.32986 1.58598 0 0 0
83 10.46174 8.75540 1.28548 0 0 0
84 11.31533 8.70793 0.76670 0 0 0
85 12.16892 9.13346 0.46620 0 0 0
86 7.25408 7.35905 3.78218 0 0 0
87 7.46078 6.58280 4.37775 0 0 0
88 7.66748 6.71045 5.34779 0 0 0
89 7.87418 5.93420 5.94336 0 0 0
90 8.08088 6.06185 6.91340 0 0 0
91 8.28757 5.28560 7.50898 0 0 0
92 6.50088 8.56485 2.97940 0 0 0
93 5.95438 9.23424 3.48264 0 0 0
94 5.40789 10.00476 3.15456 0 0 0
95 4.86139 10.67415 3.65780 0 0 0
96 4.31489 11.44467 3.32972 0 0 0
97 3.76839 12.11406 3.83296 0 0 0
ITEM: TIMESTEP
1000
ITEM: NUMBER OF ATOMS
97
ITEM: BOX BOUNDS pp pp pp
-1.0000000000000000e+03 1.0000000000000000e+03
-1.0000000000000000e+03 1.0000000000000000e+03
-1.0000000000000000e+03 1.0000000000000000e+03
ITEM: ATOMS id x y z ix iy iz
67 5.64007 1.64463 0.06361 0 0 0
1 3.00557 -2.93300 2.15972 0 0 0
2 3.17032 -3.86033 1.92626 0 0 0
3 2.25942 -4.00757 2.26223 0 0 0
4 1.92120 -3.76688 3.19182 0 0 0
5 1.53122 -2.94523 3.54850 0 0 0
6 1.25592 -1.94005 3.39086 0 0 0
7 1.70127 -1.46365 4.07901 0 0 0
8 0.82953 -1.22466 4.49828 0 0 0
9 0.64807 -0.46324 5.12620 0 0 0
10 0.31997 0.40554 5.13294 0 0 0
11 0.10137 0.80485 6.03596 0 0 0
12 0.54474 1.65101 6.23494 0 0 0
13 1.14896 2.16397 5.67929 0 0 0
14 2.25640 -1.32354 4.93025 0 0 0
15 2.38184 -0.35302 5.21425 0 0 0
16 1.91871 0.10833 4.57259 0 0 0
17 1.61968 0.99937 4.29110 0 0 0
18 2.23094 1.46406 4.96539 0 0 0
19 2.47968 1.75188 5.87377 0 0 0
20 2.49148 -1.76153 3.57681 0 0 0
21 3.27913 -2.16992 3.99023 0 0 0
22 3.58989 -2.07122 4.84165 0 0 0
23 4.27726 -2.72736 4.54065 0 0 0
24 4.90107 -3.26139 5.21512 0 0 0
25 5.83764 -3.41348 5.35029 0 0 0
26 6.60767 -3.74789 5.87307 0 0 0
27 6.65939 -4.65806 5.46606 0 0 0
28 7.44778 -5.26160 5.89886 0 0 0
29 6.88159 -6.01865 5.60565 0 0 0
30 7.23590 -6.62176 4.85199 0 0 0
31 7.24132 -7.51396 4.78933 0 0 0
32 6.07222 -2.48096 5.10671 0 0 0
33 6.36961 -1.58850 5.83039 0 0 0
34 6.23094 -0.57869 5.63212 0 0 0
35 6.52566 0.13074 6.23310 0 0 0
36 6.30860 1.02785 6.62595 0 0 0
37 6.37991 1.94553 6.86439 0 0 0
38 5.55395 -3.24890 4.36712 0 0 0
39 6.44495 -3.44013 4.10652 0 0 0
40 6.93213 -2.62773 4.12867 0 0 0
41 6.91423 -1.85935 3.58439 0 0 0
42 6.86960 -1.02398 3.04426 0 0 0
43 7.10486 -0.07938 2.85286 0 0 0
44 7.67790 -0.21028 2.01902 0 0 0
50 8.02941 -0.32185 3.03589 0 0 0
51 8.94182 -0.24480 2.69014 0 0 0
52 9.06436 0.54638 2.16078 0 0 0
53 9.92064 0.62605 2.48484 0 0 0
54 9.74536 0.14981 3.31697 0 0 0
55 9.68816 -0.05844 4.29639 0 0 0
56 6.53303 0.72296 3.02307 0 0 0
57 6.73647 1.58763 2.72089 0 0 0
58 6.34624 2.42160 2.17664 0 0 0
59 5.79070 3.14892 2.55617 0 0 0
60 5.49325 3.74497 1.88541 0 0 0
61 4.68286 4.23119 2.06201 0 0 0
62 4.56100 3.25294 1.91406 0 0 0
63 4.01425 2.45405 2.13178 0 0 0
64 3.84145 1.72120 1.62687 0 0 0
65 4.22088 1.95594 0.79213 0 0 0
66 4.64787 1.73144 -0.04309 0 0 0
47 7.09866 -1.97338 0.42090 0 0 0
68 3.96630 4.14879 2.65287 0 0 0
69 2.99577 4.19213 3.08162 0 0 0
70 2.56131 4.17428 3.92893 0 0 0
74 4.89099 5.14011 1.68764 0 0 0
75 5.50111 5.49175 1.07467 0 0 0
76 6.27908 5.94618 1.59927 0 0 0
77 6.39575 6.60613 2.30319 0 0 0
78 6.92134 6.75842 3.13771 0 0 0
79 6.94432 6.04480 3.77504 0 0 0
80 7.96823 5.93743 3.77524 0 0 0
81 8.20845 5.00574 3.59874 0 0 0
82 8.43228 4.08849 3.67265 0 0 0
83 9.15788 3.71491 2.98198 0 0 0
84 9.89031 3.55781 2.24544 0 0 0
85 10.17863 4.35694 2.65982 0 0 0
86 6.90024 5.16176 4.24557 0 0 0
87 7.48517 5.20128 5.03261 0 0 0
88 8.40832 5.44049 5.30998 0 0 0
89 7.97768 5.53810 6.17532 0 0 0
90 8.06436 5.48955 7.19764 0 0 0
91 7.89643 4.61615 7.50751 0 0 0
92 6.73825 6.07855 4.69464 0 0 0
93 6.61148 6.77923 5.40452 0 0 0
94 6.60680 7.30334 6.16142 0 0 0
95 7.40688 7.90088 5.80508 0 0 0
96 8.35306 8.13087 5.57013 0 0 0
97 7.95986 8.40799 4.70152 0 0 0
45 8.12718 -0.85072 1.39053 0 0 0
71 1.98619 3.37029 3.95629 0 0 0
73 1.20606 4.45808 4.92191 0 0 0
72 1.05674 3.84767 4.22835 0 0 0
49 5.34910 -2.36081 1.15299 0 0 0
46 7.64188 -1.65929 1.15079 0 0 0
48 6.21426 -2.16417 0.68204 0 0 0
ITEM: TIMESTEP
2000
ITEM: NUMBER OF ATOMS
97
ITEM: BOX BOUNDS pp pp pp
-1.0000000000000000e+03 1.0000000000000000e+03
-1.0000000000000000e+03 1.0000000000000000e+03
-1.0000000000000000e+03 1.0000000000000000e+03
ITEM: ATOMS id x y z ix iy iz
1 2.56865 -0.02545 3.44935 0 0 0
2 1.82539 0.31585 2.89375 0 0 0
3 1.11591 -0.31991 2.98866 0 0 0
4 0.23135 -0.45596 2.82928 0 0 0
5 0.67272 -1.28725 3.23392 0 0 0
6 1.62695 -1.37592 3.36624 0 0 0
7 2.16296 -1.14384 4.10968 0 0 0
8 1.15986 -0.70844 4.39608 0 0 0
9 0.70242 -0.48002 5.21368 0 0 0
10 -0.00751 -0.12560 5.71876 0 0 0
11 -0.80942 0.28552 5.50468 0 0 0
12 -1.14667 1.14970 5.16843 0 0 0
13 -2.08954 1.49313 5.28022 0 0 0
14 2.39424 -0.22423 4.41387 0 0 0
15 1.87517 0.66534 4.30400 0 0 0
16 1.65579 1.64086 4.57901 0 0 0
17 2.40726 2.06944 5.03614 0 0 0
18 3.24464 1.77406 5.45968 0 0 0
19 3.18591 2.00322 4.42258 0 0 0
20 2.72993 -1.53023 3.36918 0 0 0
21 3.45247 -1.65684 2.80396 0 0 0
22 4.51239 -1.76240 3.11507 0 0 0
23 5.03469 -2.63948 3.21896 0 0 0
24 5.72061 -3.34741 3.21295 0 0 0
25 6.37880 -2.81566 3.60586 0 0 0
26 6.75535 -3.63089 3.89451 0 0 0
27 7.03609 -4.61083 3.94713 0 0 0
28 7.02285 -5.53560 4.41237 0 0 0
29 6.72972 -6.43090 4.63408 0 0 0
30 6.49588 -6.90864 5.42829 0 0 0
31 6.99051 -7.28736 6.11610 0 0 0
32 6.20045 -2.23616 2.74674 0 0 0
33 5.59085 -1.39756 2.80703 0 0 0
34 5.98766 -0.91125 3.51045 0 0 0
35 6.07097 -1.41209 4.38477 0 0 0
36 5.30597 -1.87260 4.70749 0 0 0
37 4.84305 -1.03771 4.86470 0 0 0
38 6.86899 -1.97852 3.74616 0 0 0
39 7.22100 -1.06913 3.94762 0 0 0
40 7.01087 -0.12894 3.64377 0 0 0
41 7.15826 0.82393 3.55603 0 0 0
42 7.76003 0.90242 2.77125 0 0 0
43 7.69258 1.18993 1.84951 0 0 0
44 7.50203 0.25798 1.89655 0 0 0
50 8.63048 1.47595 1.76074 0 0 0
51 9.20457 0.76297 1.33186 0 0 0
52 9.09896 -0.23295 1.09456 0 0 0
53 9.89504 0.32079 0.69559 0 0 0
54 10.84395 0.69646 0.69384 0 0 0
55 10.69985 0.66454 -0.29018 0 0 0
56 7.78360 2.14917 1.58491 0 0 0
57 7.57944 2.64437 2.35317 0 0 0
58 6.76817 2.85728 1.88400 0 0 0
59 6.32437 2.05794 1.95907 0 0 0
60 5.96036 2.11447 1.06295 0 0 0
61 5.34597 2.38860 1.82815 0 0 0
62 4.63606 2.99787 1.61615 0 0 0
63 3.78945 2.94217 2.15490 0 0 0
64 2.86458 3.01572 2.03783 0 0 0
65 2.64803 3.16008 1.13929 0 0 0
48 6.85295 -2.64619 1.86541 0 0 0
47 7.14670 -1.73693 1.88098 0 0 0
68 4.66009 1.61328 1.50404 0 0 0
69 4.18914 1.46641 2.31536 0 0 0
70 3.61004 2.00339 2.91536 0 0 0
74 5.75897 3.07508 2.43910 0 0 0
75 6.01226 3.27143 3.34805 0 0 0
76 6.97338 3.52893 3.71675 0 0 0
77 7.32673 3.13586 4.50370 0 0 0
78 8.17778 3.55136 4.45426 0 0 0
79 8.73466 4.15647 4.95549 0 0 0
80 8.33434 4.62445 4.12712 0 0 0
81 7.46408 4.98453 4.40091 0 0 0
82 7.10444 5.55325 5.07184 0 0 0
83 6.58155 6.30112 4.74515 0 0 0
84 5.61438 6.42962 4.73477 0 0 0
46 6.88988 -0.84765 1.98547 0 0 0
86 9.25776 3.35537 4.74664 0 0 0
87 8.94250 2.49365 4.57848 0 0 0
88 8.25770 2.04393 5.18820 0 0 0
89 9.01954 1.56842 5.56290 0 0 0
90 8.46014 1.86494 6.25266 0 0 0
91 9.06250 1.31615 6.69730 0 0 0
92 9.73694 4.28459 4.62137 0 0 0
93 9.71785 5.03584 5.21726 0 0 0
94 10.22363 5.33276 4.43174 0 0 0
95 9.43037 5.90236 4.11039 0 0 0
96 8.80232 6.62468 4.00174 0 0 0
97 8.02539 7.20748 4.08837 0 0 0
45 6.97425 -0.12915 1.27468 0 0 0
71 2.87795 2.46274 3.49870 0 0 0
73 1.67617 3.93637 3.03479 0 0 0
72 2.08672 3.12252 3.31042 0 0 0
49 7.72876 -2.58471 1.12738 0 0 0
85 5.06815 5.75201 4.21508 0 0 0
66 1.81898 3.57155 1.18555 0 0 0
67 1.77094 3.56580 0.22754 0 0 0
ITEM: TIMESTEP
3000
ITEM: NUMBER OF ATOMS
97
ITEM: BOX BOUNDS pp pp pp
-1.0000000000000000e+03 1.0000000000000000e+03
-1.0000000000000000e+03 1.0000000000000000e+03
-1.0000000000000000e+03 1.0000000000000000e+03
ITEM: ATOMS id x y z ix iy iz
49 8.65602 0.31812 -2.00696 0 0 0
48 8.20046 0.16586 -1.11408 0 0 0
47 7.68338 -0.03442 -0.28757 0 0 0
1 1.83337 -1.69562 2.83211 0 0 0
2 1.12838 -2.36215 2.37825 0 0 0
3 1.16713 -3.29757 2.04805 0 0 0
4 1.52672 -4.15822 2.28874 0 0 0
5 2.11021 -3.70762 2.98919 0 0 0
6 2.11820 -2.75676 3.08082 0 0 0
7 2.24786 -2.05173 3.74430 0 0 0
8 1.32436 -2.46568 3.88754 0 0 0
9 0.47549 -2.90536 3.53703 0 0 0
10 -0.34812 -2.88951 4.00777 0 0 0
11 -0.59304 -2.56462 4.89917 0 0 0
12 -1.12356 -2.83271 5.74980 0 0 0
13 -1.74103 -2.56202 6.44983 0 0 0
14 1.98343 -1.13931 3.92627 0 0 0
15 1.80483 -0.31165 4.46492 0 0 0
16 1.42721 0.60241 4.69903 0 0 0
17 1.61428 0.79089 3.79815 0 0 0
18 2.17753 1.46602 3.39095 0 0 0
19 2.39303 2.09469 2.72251 0 0 0
20 3.03911 -2.50088 3.35275 0 0 0
21 3.14714 -1.57552 3.53096 0 0 0
22 4.09637 -1.85406 3.22919 0 0 0
23 5.07207 -1.97841 3.30159 0 0 0
24 5.92518 -2.15360 3.69246 0 0 0
25 6.44308 -2.27726 4.47029 0 0 0
26 6.49540 -3.30374 4.50923 0 0 0
27 5.94279 -4.02827 4.04833 0 0 0
28 6.45926 -4.49105 3.36158 0 0 0
29 7.26148 -4.08548 2.99448 0 0 0
30 7.64860 -4.31132 3.88276 0 0 0
31 7.77258 -3.33743 3.87541 0 0 0
32 5.93539 -2.23496 5.27031 0 0 0
33 5.24227 -2.46263 5.91358 0 0 0
34 4.59157 -2.69051 6.63112 0 0 0
35 4.81581 -1.73165 6.71027 0 0 0
36 4.96825 -0.73174 6.67982 0 0 0
37 5.27419 0.21601 6.49044 0 0 0
38 7.35674 -1.82913 4.35827 0 0 0
39 8.15384 -1.31180 4.43579 0 0 0
40 8.52941 -1.73359 3.64359 0 0 0
41 9.05621 -1.17701 3.09697 0 0 0
42 8.35541 -0.89975 2.51489 0 0 0
43 8.09990 -0.02199 2.10748 0 0 0
44 7.46412 -0.46428 1.52862 0 0 0
50 8.74407 0.66800 2.36569 0 0 0
51 9.26850 1.42080 2.21323 0 0 0
52 9.67075 2.28955 1.93332 0 0 0
66 1.70665 4.27433 4.20289 0 0 0
85 5.94866 8.95603 5.69390 0 0 0
67 0.85009 4.65782 4.46335 0 0 0
56 7.27346 0.43274 2.40282 0 0 0
57 6.60635 0.38437 3.14042 0 0 0
58 5.67383 0.43076 3.48775 0 0 0
59 4.96197 1.17363 3.60931 0 0 0
60 4.61549 1.56265 2.81071 0 0 0
61 4.15092 2.44323 2.57503 0 0 0
62 3.99308 3.43115 2.59174 0 0 0
63 3.13429 3.50510 3.01881 0 0 0
64 2.63290 4.34477 3.12744 0 0 0
65 2.25486 5.01934 3.77218 0 0 0
54 10.37576 3.87788 2.47200 0 0 0
53 10.34599 2.99346 2.08823 0 0 0
68 3.92347 2.56555 3.50837 0 0 0
69 3.49758 2.66745 4.38362 0 0 0
70 3.33042 3.06759 5.23643 0 0 0
74 5.01746 2.39470 2.04082 0 0 0
75 5.94613 2.36501 2.25329 0 0 0
76 5.72874 3.29445 2.02383 0 0 0
77 6.34138 3.87218 2.55091 0 0 0
78 7.20542 4.36022 2.64141 0 0 0
79 7.15301 4.91707 3.42228 0 0 0
80 6.74600 5.30457 4.19221 0 0 0
81 6.17192 5.65006 4.92683 0 0 0
82 6.15699 6.28790 5.65744 0 0 0
83 5.80072 7.08143 6.14530 0 0 0
84 5.84508 7.98436 5.91633 0 0 0
46 6.95891 -0.06718 0.37238 0 0 0
86 7.40947 4.46709 4.23088 0 0 0
87 7.40842 3.61386 4.77397 0 0 0
88 8.33140 3.54958 5.08458 0 0 0
89 8.85080 2.80295 5.51468 0 0 0
90 9.36783 2.12317 4.86450 0 0 0
91 9.67074 1.38674 5.38043 0 0 0
92 7.05258 5.81421 3.09150 0 0 0
93 7.54920 6.68673 3.45840 0 0 0
94 7.23488 6.95104 4.31561 0 0 0
95 7.56283 7.39698 5.14299 0 0 0
96 8.26488 8.06012 4.95653 0 0 0
97 8.04595 9.05318 5.14627 0 0 0
45 7.50971 0.43912 1.01830 0 0 0
71 2.95190 3.90835 5.33324 0 0 0
73 3.59431 3.77764 4.10252 0 0 0
72 2.68301 4.03522 4.38291 0 0 0
55 9.61340 3.62136 2.95289 0 0 0
ITEM: TIMESTEP
4000
ITEM: NUMBER OF ATOMS
97
ITEM: BOX BOUNDS pp pp pp
-1.0000000000000000e+03 1.0000000000000000e+03
-1.0000000000000000e+03 1.0000000000000000e+03
-1.0000000000000000e+03 1.0000000000000000e+03
ITEM: ATOMS id x y z ix iy iz
48 7.23375 -1.25773 -0.65815 0 0 0
49 7.29689 -1.73436 -1.52716 0 0 0
47 7.77887 -0.50262 -0.47490 0 0 0
1 4.73307 -5.16667 1.58686 0 0 0
2 3.92715 -4.60202 1.66980 0 0 0
3 3.51254 -3.89247 2.26152 0 0 0
4 3.88585 -3.15013 2.64792 0 0 0
5 3.33676 -2.45562 2.93076 0 0 0
6 3.22427 -2.04342 3.77109 0 0 0
7 2.54534 -1.52808 4.25682 0 0 0
8 2.05588 -2.41552 4.21613 0 0 0
9 1.76375 -3.28373 3.89139 0 0 0
10 1.26704 -3.07823 3.10029 0 0 0
11 0.29898 -3.03926 2.89081 0 0 0
12 -0.30466 -3.65574 2.54001 0 0 0
13 -0.60899 -3.78529 3.54050 0 0 0
14 1.58517 -1.26329 4.03984 0 0 0
15 1.48564 -0.41360 4.47446 0 0 0
16 0.91172 -0.58141 5.21394 0 0 0
17 0.29466 -0.31382 5.90236 0 0 0
18 -0.66439 -0.24489 5.96704 0 0 0
19 -0.65710 -1.12851 6.32078 0 0 0
20 3.57555 -1.11549 4.50723 0 0 0
21 3.89766 -0.40979 5.00131 0 0 0
22 4.48793 -1.26060 5.13328 0 0 0
23 4.22279 -2.06180 5.55215 0 0 0
24 4.78305 -2.40075 6.29947 0 0 0
25 5.33321 -2.39207 5.46291 0 0 0
26 4.62285 -3.06784 5.31217 0 0 0
27 4.73118 -4.03248 5.21813 0 0 0
28 4.52652 -4.28526 4.25570 0 0 0
29 3.89894 -5.00480 4.56400 0 0 0
30 4.84816 -5.10314 4.83038 0 0 0
31 5.47223 -5.15309 5.59646 0 0 0
32 5.90566 -2.17977 6.19133 0 0 0
33 5.64123 -1.95021 7.08442 0 0 0
34 5.33588 -0.92829 7.23213 0 0 0
35 6.02804 -0.63743 6.66508 0 0 0
36 5.48969 -0.15161 5.96755 0 0 0
37 6.31891 0.23451 5.60435 0 0 0
38 5.88665 -2.02435 4.74709 0 0 0
39 6.63570 -1.41278 4.56990 0 0 0
40 6.21340 -1.07077 3.78665 0 0 0
41 6.91614 -1.10685 3.17900 0 0 0
42 7.59047 -0.34887 2.92824 0 0 0
43 7.52845 0.33485 2.26090 0 0 0
44 7.02201 -0.07412 1.58153 0 0 0
50 8.34928 0.35194 2.82062 0 0 0
51 8.91917 0.00489 3.50046 0 0 0
52 9.57995 -0.06779 2.77325 0 0 0
66 3.34592 4.44767 2.66949 0 0 0
85 4.40204 4.99971 7.35817 0 0 0
67 2.72810 5.25944 2.73617 0 0 0
56 7.31553 1.25789 2.41460 0 0 0
57 7.03594 2.15063 2.61765 0 0 0
58 6.37057 2.22524 3.35847 0 0 0
59 5.43545 2.28025 2.90991 0 0 0
60 4.82221 2.43259 3.66595 0 0 0
61 3.98043 2.55029 3.20970 0 0 0
62 3.32908 2.15164 2.54861 0 0 0
63 2.48648 2.25555 2.06387 0 0 0
64 2.13378 3.15705 1.97106 0 0 0
65 2.70599 3.67625 2.53430 0 0 0
54 10.29570 0.75869 1.36225 0 0 0
53 9.79539 0.51786 2.10184 0 0 0
68 3.39795 2.68496 3.99081 0 0 0
69 2.47431 2.54624 3.85435 0 0 0
70 2.62945 3.47965 3.92063 0 0 0
74 4.41172 3.33503 2.96918 0 0 0
75 4.90131 3.71764 3.68732 0 0 0
76 5.76323 3.32205 3.76940 0 0 0
77 5.84959 3.91973 4.57566 0 0 0
78 5.68792 4.87975 4.47542 0 0 0
79 6.61438 5.28186 4.41242 0 0 0
80 6.65496 6.25015 4.50685 0 0 0
81 5.80325 6.71724 4.58064 0 0 0
82 5.10715 6.27878 5.07406 0 0 0
83 4.60372 5.72853 5.65167 0 0 0
84 4.22917 5.65553 6.63953 0 0 0
55 10.02443 -0.11983 0.94918 0 0 0
86 7.08825 5.00282 5.27021 0 0 0
87 7.68336 4.68537 5.98579 0 0 0
88 8.59193 4.73687 5.54242 0 0 0
89 9.38216 4.29049 5.86690 0 0 0
90 10.16182 3.91524 6.37778 0 0 0
91 10.63675 4.63551 5.76272 0 0 0
92 6.13605 5.66351 3.59856 0 0 0
93 6.98573 6.00582 3.29542 0 0 0
94 6.80916 6.93215 3.25023 0 0 0
95 6.28272 7.02372 2.49265 0 0 0
96 5.76499 7.64976 1.96497 0 0 0
97 6.42051 8.05531 1.41803 0 0 0
72 2.51010 4.50208 5.38314 0 0 0
71 2.86295 4.05711 4.68990 0 0 0
73 2.87325 3.65239 5.74897 0 0 0
45 7.66541 -0.27792 0.87892 0 0 0
46 8.40140 -0.15678 0.27504 0 0 0
ITEM: TIMESTEP
5000
ITEM: NUMBER OF ATOMS
97
ITEM: BOX BOUNDS pp pp pp
-1.0000000000000000e+03 1.0000000000000000e+03
-1.0000000000000000e+03 1.0000000000000000e+03
-1.0000000000000000e+03 1.0000000000000000e+03
ITEM: ATOMS id x y z ix iy iz
49 6.69186 2.45531 -0.05504 0 0 0
1 4.82124 -5.17955 3.33918 0 0 0
2 5.00557 -4.15691 3.18163 0 0 0
3 4.36657 -3.45502 3.08660 0 0 0
4 3.79030 -2.62454 2.74570 0 0 0
5 3.27936 -1.82914 3.05013 0 0 0
6 2.86204 -1.00891 3.45827 0 0 0
7 2.28615 -0.56737 4.09117 0 0 0
8 1.52134 -1.14256 3.82779 0 0 0
9 1.17210 -1.55428 3.03682 0 0 0
10 1.11292 -2.11424 2.25377 0 0 0
11 1.63084 -2.93996 1.97401 0 0 0
12 2.48068 -3.40484 1.72397 0 0 0
13 1.75220 -3.85989 1.36182 0 0 0
14 1.65000 0.05844 4.50130 0 0 0
15 1.83101 0.02622 5.51777 0 0 0
16 1.53347 -0.23873 6.37774 0 0 0
17 1.26327 -0.07031 7.30826 0 0 0
18 0.90427 -0.16752 8.15214 0 0 0
19 1.69937 -0.74436 8.43661 0 0 0
20 2.81975 0.18079 3.73216 0 0 0
21 2.71443 1.09882 4.03506 0 0 0
22 3.64804 0.74650 4.30644 0 0 0
23 4.03374 -0.19727 4.43114 0 0 0
24 4.45741 -0.73346 5.12408 0 0 0
25 4.65640 -1.65541 4.71233 0 0 0
26 4.16866 -2.39421 5.23637 0 0 0
27 4.09273 -3.18204 5.71131 0 0 0
28 4.40899 -4.06408 5.56671 0 0 0
29 4.08610 -4.69299 6.20048 0 0 0
30 3.45184 -5.40537 6.27832 0 0 0
31 2.73202 -4.81487 6.35685 0 0 0
32 5.13531 -2.17271 5.46230 0 0 0
33 5.44449 -1.94354 6.30900 0 0 0
34 5.91215 -1.29124 6.83349 0 0 0
35 6.33208 -0.64862 7.37759 0 0 0
36 6.69896 -0.11990 6.49568 0 0 0
37 7.60115 -0.34180 6.61954 0 0 0
38 5.28450 -1.17067 4.16226 0 0 0
39 5.32307 -1.47006 3.26134 0 0 0
40 4.72445 -1.02573 2.61923 0 0 0
41 4.33060 -0.62724 1.81995 0 0 0
42 5.27447 -0.28303 2.03097 0 0 0
43 5.75628 0.37696 2.60482 0 0 0
44 6.22679 0.93684 1.92215 0 0 0
50 6.73440 0.27706 2.68871 0 0 0
51 7.40179 -0.39405 2.66157 0 0 0
52 7.99558 -0.00422 1.95718 0 0 0
66 2.99479 5.80064 2.67242 0 0 0
85 5.63454 8.59035 7.64187 0 0 0
67 2.86502 4.90783 2.21875 0 0 0
56 5.14581 0.96429 3.05144 0 0 0
57 4.37516 1.32108 3.59469 0 0 0
58 4.91754 0.82620 4.26832 0 0 0
59 5.09302 1.77995 4.24102 0 0 0
60 5.57779 2.63841 4.06856 0 0 0
61 5.01082 3.45525 4.28963 0 0 0
62 4.39499 3.55387 3.57822 0 0 0
63 3.65276 4.07358 3.58330 0 0 0
64 2.93869 4.72882 3.52639 0 0 0
65 3.14152 5.70518 3.68735 0 0 0
54 9.25531 -0.48327 1.02640 0 0 0
53 8.54905 -0.71954 1.58742 0 0 0
68 4.26762 2.77111 4.57416 0 0 0
69 3.64653 2.38274 5.23005 0 0 0
70 2.62784 2.22339 5.30873 0 0 0
74 5.93293 3.67379 3.95527 0 0 0
75 6.82036 4.02336 3.97644 0 0 0
76 6.50845 4.84078 4.39729 0 0 0
77 7.23955 5.36894 4.84884 0 0 0
78 7.68965 6.01371 4.33390 0 0 0
79 7.64194 6.58583 5.18206 0 0 0
80 7.04494 6.26305 5.95383 0 0 0
81 6.61368 5.70424 6.69892 0 0 0
82 6.00732 6.27460 7.24302 0 0 0
83 6.57461 7.04232 7.57811 0 0 0
84 5.93835 7.73819 7.64281 0 0 0
55 8.87374 0.01624 0.25271 0 0 0
86 8.22020 5.93050 5.63828 0 0 0
87 8.46775 4.93978 5.41219 0 0 0
88 8.59022 4.40893 4.56809 0 0 0
89 8.40096 5.13604 3.89640 0 0 0
90 8.96615 5.72799 4.29391 0 0 0
91 8.84042 6.49461 3.70721 0 0 0
92 7.92093 7.46723 5.48189 0 0 0
93 6.89944 7.48712 5.38206 0 0 0
94 6.21088 7.22602 4.75141 0 0 0
95 6.38065 8.06187 4.22382 0 0 0
96 7.07572 8.79815 3.68678 0 0 0
97 7.90544 9.05958 3.29861 0 0 0
72 1.44732 3.60525 5.08847 0 0 0
71 1.68843 2.71620 5.33782 0 0 0
73 0.50606 3.89181 4.96600 0 0 0
45 6.87452 1.63614 2.34137 0 0 0
47 7.00772 1.70056 0.73393 0 0 0
46 7.07282 2.20766 1.63315 0 0 0
48 6.07435 2.06189 0.58929 0 0 0
ITEM: TIMESTEP
6000
ITEM: NUMBER OF ATOMS
97
ITEM: BOX BOUNDS pp pp pp
-1.0000000000000000e+03 1.0000000000000000e+03
-1.0000000000000000e+03 1.0000000000000000e+03
-1.0000000000000000e+03 1.0000000000000000e+03
ITEM: ATOMS id x y z ix iy iz
1 2.92163 -0.79364 5.51068 0 0 0
2 3.55057 -0.87480 4.71814 0 0 0
3 4.29417 -1.20624 4.10623 0 0 0
4 4.71460 -0.86419 3.25720 0 0 0
5 4.61014 -0.49925 2.33401 0 0 0
6 4.28629 0.23109 2.91072 0 0 0
7 3.43965 -0.24941 2.95445 0 0 0
8 3.63226 -1.14057 2.61465 0 0 0
9 3.14717 -1.78979 2.10058 0 0 0
10 3.44207 -1.45371 1.19961 0 0 0
11 4.07117 -2.03815 0.51358 0 0 0
12 4.81918 -2.42144 1.13521 0 0 0
13 4.88455 -3.06065 1.91975 0 0 0
14 2.59350 -0.17227 3.50443 0 0 0
15 2.14377 -0.66775 2.82258 0 0 0
16 1.33042 -0.99601 3.20145 0 0 0
17 1.46664 -1.05472 4.17426 0 0 0
18 0.58904 -1.28963 3.91365 0 0 0
19 0.14548 -1.46073 3.00997 0 0 0
20 3.75246 -0.27317 3.89129 0 0 0
21 4.45261 0.21018 4.32206 0 0 0
22 4.57263 0.28593 5.34573 0 0 0
23 5.35522 0.06355 5.77947 0 0 0
24 5.86507 -0.66557 5.40698 0 0 0
25 6.19566 -1.63421 5.17242 0 0 0
26 5.65315 -2.18158 5.80899 0 0 0
27 4.98635 -2.94821 5.82752 0 0 0
28 4.39213 -2.75072 6.57309 0 0 0
29 3.67772 -3.40160 6.35746 0 0 0
30 3.14204 -3.62544 7.13274 0 0 0
31 3.15124 -3.72904 8.18233 0 0 0
32 6.94426 -0.97835 5.45567 0 0 0
33 7.42568 -0.44236 6.14196 0 0 0
34 7.16492 -0.45702 7.10008 0 0 0
35 6.23881 -0.57383 6.99643 0 0 0
36 5.58669 0.22489 6.95109 0 0 0
37 4.98420 0.85501 7.35081 0 0 0
38 6.15601 -2.52288 4.73540 0 0 0
39 5.55049 -2.18078 4.09938 0 0 0
40 5.87221 -1.28487 3.70541 0 0 0
41 6.78743 -0.78525 3.49698 0 0 0
42 7.15606 0.12357 3.38732 0 0 0
43 6.71713 1.03180 3.54181 0 0 0
44 7.57075 1.44054 3.77329 0 0 0
50 6.96884 1.36475 2.67811 0 0 0
51 7.44287 1.13218 1.87386 0 0 0
52 7.11512 0.35785 1.28179 0 0 0
66 0.90429 7.21827 2.49592 0 0 0
85 5.91804 9.12682 2.26418 0 0 0
67 0.29696 6.56044 2.03851 0 0 0
56 6.02862 1.58535 3.86579 0 0 0
57 5.15312 1.82794 4.18262 0 0 0
58 4.63103 2.71456 4.00124 0 0 0
59 3.85890 3.23992 3.63798 0 0 0
60 3.71857 4.15291 3.54260 0 0 0
61 3.14336 4.63764 4.20692 0 0 0
62 2.69382 5.34722 3.80491 0 0 0
63 2.58665 5.52175 2.81647 0 0 0
64 2.63978 6.46212 2.44703 0 0 0
65 1.86590 7.15151 2.69061 0 0 0
54 6.42346 -0.23814 0.63680 0 0 0
53 6.31604 -0.07463 1.67047 0 0 0
68 2.46686 4.04046 3.79177 0 0 0
69 1.67949 3.79493 4.35824 0 0 0
70 1.59872 4.16983 5.27127 0 0 0
74 3.98800 5.02826 4.65226 0 0 0
75 4.63929 5.68890 5.13241 0 0 0
76 5.18917 6.38632 5.54161 0 0 0
77 5.99899 6.10017 5.92078 0 0 0
78 6.92198 6.07340 5.79131 0 0 0
79 7.34213 5.83212 4.93939 0 0 0
80 7.19619 6.72583 4.95740 0 0 0
81 6.45580 7.57036 4.93888 0 0 0
82 6.14470 8.40591 4.58462 0 0 0
83 5.80870 8.57121 3.67511 0 0 0
84 5.28752 8.89948 2.89271 0 0 0
55 7.13491 -0.84971 0.28782 0 0 0
86 8.29899 5.60886 5.08925 0 0 0
87 8.90156 4.85102 5.00835 0 0 0
88 9.66622 4.43964 5.49691 0 0 0
89 10.22618 4.90139 6.16516 0 0 0
90 9.86917 5.81828 6.33451 0 0 0
91 9.19783 6.23382 5.73229 0 0 0
92 6.69516 5.43242 4.32068 0 0 0
93 5.96630 6.03768 3.99176 0 0 0
94 6.46700 6.26675 3.16661 0 0 0
95 6.30205 6.54627 2.23505 0 0 0
96 5.85402 6.96219 1.47907 0 0 0
97 4.95312 6.61563 1.25596 0 0 0
72 2.31906 4.18528 6.74943 0 0 0
71 1.69930 4.65781 6.16713 0 0 0
73 2.91520 3.39450 6.92940 0 0 0
45 7.71471 2.27112 3.31085 0 0 0
47 7.47314 3.35988 3.16051 0 0 0
46 7.91547 2.76467 2.52059 0 0 0
48 7.03644 3.28700 4.03386 0 0 0
49 6.43545 2.91567 3.39000 0 0 0
ITEM: TIMESTEP
7000
ITEM: NUMBER OF ATOMS
97
ITEM: BOX BOUNDS pp pp pp
-1.0000000000000000e+03 1.0000000000000000e+03
-1.0000000000000000e+03 1.0000000000000000e+03
-1.0000000000000000e+03 1.0000000000000000e+03
ITEM: ATOMS id x y z ix iy iz
67 1.92513 4.25517 -0.69047 0 0 0
66 1.98771 4.89679 0.02846 0 0 0
55 3.70057 0.73475 -0.15851 0 0 0
1 2.12569 -3.67387 3.39163 0 0 0
2 2.81115 -3.85690 3.99087 0 0 0
3 3.62043 -3.33642 3.61975 0 0 0
4 3.18492 -2.59436 3.20847 0 0 0
5 3.89018 -1.96058 3.76351 0 0 0
6 4.31738 -1.22556 3.32594 0 0 0
7 4.01332 -0.44314 3.75984 0 0 0
8 4.23123 -0.03908 2.86793 0 0 0
9 3.58898 -0.25471 2.20033 0 0 0
10 2.66149 -0.30540 2.01165 0 0 0
11 1.67676 -0.43768 2.35243 0 0 0
12 1.85680 -1.36595 2.51765 0 0 0
13 1.20377 -1.81999 1.89935 0 0 0
14 3.28926 0.18455 3.41910 0 0 0
15 2.43372 0.59182 3.33267 0 0 0
16 2.14241 0.82762 4.22253 0 0 0
17 1.30910 0.42264 4.48105 0 0 0
18 0.57186 -0.13587 4.07107 0 0 0
19 -0.36288 -0.01833 4.50962 0 0 0
20 4.61985 -0.44881 4.61971 0 0 0
21 4.04864 -0.25073 5.45714 0 0 0
22 3.43142 -0.97820 5.62008 0 0 0
23 4.21526 -1.45538 5.37302 0 0 0
24 5.04292 -2.16390 5.49469 0 0 0
25 6.01196 -2.34907 5.23836 0 0 0
26 5.77153 -2.42147 6.24114 0 0 0
27 5.24860 -3.22071 5.95538 0 0 0
28 4.87834 -3.56059 5.05897 0 0 0
29 4.67349 -4.45114 4.76994 0 0 0
30 5.68662 -4.53809 4.63803 0 0 0
31 5.79003 -4.08120 5.58550 0 0 0
32 6.95252 -2.22394 4.82246 0 0 0
33 7.35587 -1.46235 5.19161 0 0 0
34 8.08270 -0.75077 5.23917 0 0 0
35 8.34858 0.00856 5.75565 0 0 0
36 9.11678 -0.55104 5.91505 0 0 0
37 9.84224 -1.06617 6.39980 0 0 0
38 5.69838 -2.67601 4.26415 0 0 0
39 6.08789 -2.00547 3.63255 0 0 0
40 5.87290 -1.17028 4.07269 0 0 0
41 5.55154 -0.29262 3.73317 0 0 0
42 5.81969 0.26660 2.89711 0 0 0
43 6.13059 0.63735 2.07170 0 0 0
44 6.86300 0.65716 2.73658 0 0 0
50 6.00511 -0.35183 1.88356 0 0 0
51 6.06049 0.15163 0.98617 0 0 0
52 5.16966 0.16157 0.48039 0 0 0
48 8.83963 2.36825 3.87476 0 0 0
85 8.90907 8.64792 7.15598 0 0 0
49 9.10375 2.52948 2.93340 0 0 0
56 6.31308 1.53419 1.85174 0 0 0
57 6.27326 2.47971 1.78564 0 0 0
58 5.97095 2.99084 2.72260 0 0 0
59 5.16528 3.47673 2.96840 0 0 0
60 4.72794 4.01096 3.60116 0 0 0
61 3.85064 4.45462 3.80836 0 0 0
62 3.16032 4.71840 3.16832 0 0 0
63 2.67049 5.18113 2.43131 0 0 0
64 2.98770 5.16177 1.44876 0 0 0
46 6.84509 2.38850 3.67725 0 0 0
54 4.64227 1.08643 -0.02978 0 0 0
53 5.57452 0.84405 -0.08340 0 0 0
68 3.05879 4.49164 4.36140 0 0 0
69 2.65283 3.63049 4.91647 0 0 0
70 2.63056 2.65503 4.89723 0 0 0
74 4.25828 5.22974 3.38477 0 0 0
75 4.27124 6.01010 2.74394 0 0 0
76 4.85371 6.31372 3.44834 0 0 0
77 5.79860 5.89642 3.69852 0 0 0
78 6.67877 5.78677 4.05081 0 0 0
79 7.30884 5.74147 4.73408 0 0 0
80 6.97708 6.29104 5.48182 0 0 0
81 6.40364 7.18853 5.72484 0 0 0
82 6.64354 7.89638 6.30604 0 0 0
83 7.24655 8.75956 6.57675 0 0 0
84 7.97960 8.26341 6.94499 0 0 0
65 2.20491 5.36237 0.91235 0 0 0
86 8.02940 5.22895 5.06456 0 0 0
87 8.15663 5.11834 6.02775 0 0 0
88 9.04029 5.38683 6.11912 0 0 0
89 9.94712 5.64998 5.97165 0 0 0
90 10.81464 5.09019 5.62833 0 0 0
91 11.57312 4.94277 6.22603 0 0 0
92 7.86965 6.38058 4.19744 0 0 0
93 7.97228 6.25035 3.16775 0 0 0
94 7.85725 6.08165 2.18782 0 0 0
95 7.06202 5.48193 2.14326 0 0 0
96 6.27991 4.79234 2.04484 0 0 0
97 5.26204 4.74276 1.92057 0 0 0
72 3.54801 2.46467 5.53601 0 0 0
71 2.80781 1.79868 5.27961 0 0 0
73 3.89900 2.83061 4.75817 0 0 0
45 6.76951 1.42986 3.43319 0 0 0
47 7.87944 2.31770 3.67964 0 0 0
ITEM: TIMESTEP
8000
ITEM: NUMBER OF ATOMS
97
ITEM: BOX BOUNDS pp pp pp
-1.0000000000000000e+03 1.0000000000000000e+03
-1.0000000000000000e+03 1.0000000000000000e+03
-1.0000000000000000e+03 1.0000000000000000e+03
ITEM: ATOMS id x y z ix iy iz
1 5.71783 -3.27446 3.47784 0 0 0
2 4.92310 -3.15036 2.83881 0 0 0
3 4.34104 -3.96800 2.79576 0 0 0
4 3.37748 -3.93500 2.45544 0 0 0
5 3.10691 -3.04270 2.15430 0 0 0
6 2.32741 -2.78179 2.65776 0 0 0
7 2.38693 -2.60688 3.59501 0 0 0
8 2.19219 -1.67622 3.30867 0 0 0
9 2.24146 -1.71498 2.36300 0 0 0
10 1.56122 -2.13251 1.74822 0 0 0
11 1.02390 -2.34544 0.96728 0 0 0
12 0.12280 -1.89926 0.89974 0 0 0
13 -0.19695 -2.14922 1.81075 0 0 0
14 1.50321 -2.51426 3.28144 0 0 0
15 0.62792 -2.40343 2.97068 0 0 0
16 -0.23114 -1.99406 2.87065 0 0 0
17 -0.57220 -1.42461 3.60785 0 0 0
18 -1.38861 -1.23708 4.08708 0 0 0
19 -2.31220 -1.55373 4.18981 0 0 0
20 2.63498 -3.03379 4.40170 0 0 0
21 2.51771 -3.29674 5.35950 0 0 0
22 2.88402 -4.05187 4.86030 0 0 0
23 3.64241 -3.52181 4.53530 0 0 0
24 3.80983 -2.84489 3.85062 0 0 0
25 4.32329 -2.24789 4.36434 0 0 0
26 4.61302 -3.06543 4.87315 0 0 0
27 4.97733 -3.64810 5.56771 0 0 0
28 4.95129 -4.58069 5.76895 0 0 0
29 5.41477 -4.91883 6.57367 0 0 0
30 6.29539 -4.77840 6.94827 0 0 0
31 6.10173 -3.77059 6.87296 0 0 0
32 5.23041 -2.27803 4.74418 0 0 0
33 6.12455 -2.23407 4.39387 0 0 0
34 6.59714 -2.58337 5.15459 0 0 0
35 6.64563 -2.50407 6.12420 0 0 0
36 5.84784 -1.93984 6.47846 0 0 0
37 5.82764 -1.02710 6.23954 0 0 0
38 5.03410 -1.96627 3.78467 0 0 0
39 5.68698 -1.48461 3.25683 0 0 0
40 5.57969 -0.57272 3.24659 0 0 0
41 6.16154 0.03962 2.76485 0 0 0
42 6.90870 0.60925 3.04159 0 0 0
43 6.14071 1.25679 3.50787 0 0 0
44 6.30034 0.45613 3.99893 0 0 0
50 5.43494 1.52236 2.86895 0 0 0
51 4.94835 1.65268 2.10503 0 0 0
52 4.14547 2.13973 1.83892 0 0 0
48 8.87794 -0.20081 4.83553 0 0 0
85 3.64626 10.23584 8.13950 0 0 0
49 9.71525 -0.50412 4.41009 0 0 0
56 6.21199 2.11882 4.07989 0 0 0
57 6.71061 2.14851 4.94781 0 0 0
58 6.92827 2.53942 5.81303 0 0 0
59 6.05793 2.32069 6.01598 0 0 0
60 5.30290 2.78259 5.61861 0 0 0
61 4.48472 3.33721 5.57534 0 0 0