ITEM: TIMESTEP
0
ITEM: NUMBER OF ATOMS
193
ITEM: BOX BOUNDS pp pp pp
-1.0000000000000000e+03 1.0000000000000000e+03
-1.0000000000000000e+03 1.0000000000000000e+03
-1.0000000000000000e+03 1.0000000000000000e+03
ITEM: ATOMS id x y z ix iy iz
127 -15.62637 -21.60697 -0.14848 0 0 0
128 -16.04698 -22.51330 -0.18914 0 0 0
129 -16.46759 -22.93124 -0.99438 0 0 0
130 -16.88820 -23.83757 -1.03504 0 0 0
131 -17.30881 -24.25552 -1.84028 0 0 0
132 -17.72942 -25.16185 -1.88095 0 0 0
133 -18.15003 -25.57980 -2.68619 0 0 0
139 -8.98791 -15.17972 -0.06832 0 0 0
140 -8.30211 -15.09828 -0.79154 0 0 0
141 -7.61630 -14.43123 -1.08261 0 0 0
142 -6.93050 -14.34979 -1.80583 0 0 0
143 -6.24470 -13.68274 -2.09691 0 0 0
144 -5.55890 -13.60130 -2.82012 0 0 0
145 -4.87310 -12.93425 -3.11120 0 0 0
1 0.00000 0.00000 0.00000 0 0 0
2 0.00000 0.00000 1.00000 0 0 0
3 0.00000 -0.50000 1.86603 0 0 0
4 0.00000 0.00000 2.73205 0 0 0
5 0.00000 -0.50000 3.59808 0 0 0
6 0.00000 0.00000 4.46410 0 0 0
7 0.00000 -0.50000 5.33013 0 0 0
8 0.00000 0.00000 6.19615 0 0 0
9 0.00000 -0.50000 7.06218 0 0 0
10 0.00000 0.00000 7.92820 0 0 0
11 0.00000 -0.50000 8.79423 0 0 0
12 0.00000 0.00000 9.66025 0 0 0
13 0.00000 -0.50000 10.52628 0 0 0
14 -0.00345 0.14944 11.28668 0 0 0
15 -0.00691 0.33167 12.26993 0 0 0
16 -0.01036 1.27431 12.60374 0 0 0
17 -0.01382 1.45654 13.58699 0 0 0
18 -0.01727 2.39918 13.92079 0 0 0
19 -0.02073 2.58141 14.90404 0 0 0
20 -0.02418 3.52405 15.23785 0 0 0
21 -0.02764 3.70628 16.22110 0 0 0
22 -0.03109 4.64891 16.55491 0 0 0
23 -0.03455 4.83115 17.53816 0 0 0
24 -0.03800 5.77378 17.87196 0 0 0
25 -0.04146 5.95601 18.85521 0 0 0
26 0.81807 -1.07249 10.58120 0 0 0
27 1.63615 -1.59573 10.34252 0 0 0
28 2.45422 -2.06406 10.67633 0 0 0
29 3.27229 -2.58731 10.43765 0 0 0
30 4.09037 -3.05563 10.77146 0 0 0
31 4.90844 -3.57888 10.53278 0 0 0
32 5.72651 -4.04721 10.86659 0 0 0
33 6.54459 -4.57045 10.62791 0 0 0
34 7.36266 -5.03878 10.96172 0 0 0
35 8.18073 -5.56203 10.72304 0 0 0
36 8.99881 -6.03035 11.05684 0 0 0
37 9.81688 -6.55360 10.81817 0 0 0
38 -0.81462 -1.07767 10.57821 0 0 0
39 -1.62924 -1.60391 10.33435 0 0 0
40 -2.44386 -2.07822 10.66816 0 0 0
41 -3.25847 -2.60446 10.42430 0 0 0
42 -4.07309 -3.07877 10.75810 0 0 0
43 -4.88771 -3.60501 10.51424 0 0 0
44 -5.70233 -4.07932 10.84805 0 0 0
45 -6.51695 -4.60556 10.60419 0 0 0
46 -7.33157 -5.07987 10.93799 0 0 0
47 -8.14619 -5.60611 10.69413 0 0 0
48 -8.96080 -6.08042 11.02794 0 0 0
49 -9.77542 -6.60666 10.78408 0 0 0
50 -9.97328 -6.48403 9.81155 0 0 0
51 -10.17113 -5.89157 9.03063 0 0 0
52 -10.36899 -6.27163 8.12708 0 0 0
53 -10.56684 -5.67917 7.34615 0 0 0
54 -10.76470 -6.05924 6.44260 0 0 0
55 -10.96255 -5.46677 5.66168 0 0 0
56 -11.16041 -5.84684 4.75813 0 0 0
57 -11.35826 -5.25438 3.97721 0 0 0
58 -11.55611 -5.63444 3.07366 0 0 0
59 -11.75397 -5.04198 2.29274 0 0 0
60 -11.95182 -5.42205 1.38919 0 0 0
61 -12.14968 -4.82958 0.60826 0 0 0
62 -10.55350 -6.28715 11.32492 0 0 0
63 -11.33158 -6.28087 11.95306 0 0 0
64 -12.10965 -5.73374 12.26169 0 0 0
65 -12.88773 -5.72746 12.88983 0 0 0
66 -13.66581 -5.18034 13.19846 0 0 0
67 -14.44388 -5.17405 13.82659 0 0 0
68 -15.22196 -4.62693 14.13522 0 0 0
69 -16.00004 -4.62065 14.76336 0 0 0
70 -16.77811 -4.07352 15.07199 0 0 0
71 -17.55619 -4.06724 15.70013 0 0 0
72 -18.33427 -3.52012 16.00876 0 0 0
73 -19.11234 -3.51384 16.63689 0 0 0
74 -9.61527 -7.57578 10.97156 0 0 0
75 -9.45511 -8.50881 10.64936 0 0 0
76 -9.29496 -9.25435 11.29629 0 0 0
77 -9.13480 -10.18738 10.97409 0 0 0
78 -8.97464 -10.93292 11.62101 0 0 0
79 -8.81449 -11.86595 11.29881 0 0 0
80 -8.65433 -12.61150 11.94574 0 0 0
81 -8.49418 -13.54452 11.62354 0 0 0
82 -8.33402 -14.29007 12.27047 0 0 0
83 -8.17387 -15.22309 11.94827 0 0 0
84 -8.01371 -15.96864 12.59519 0 0 0
85 -7.85356 -16.90167 12.27299 0 0 0
86 -8.23920 -17.55173 12.92774 0 0 0
87 -8.62484 -18.44208 13.16974 0 0 0
88 -9.01048 -18.67768 14.06180 0 0 0
89 -9.39612 -19.56803 14.30380 0 0 0
90 -9.78176 -19.80363 15.19586 0 0 0
91 -10.16740 -20.69397 15.43785 0 0 0
92 -10.55304 -20.92957 16.32991 0 0 0
93 -10.93868 -21.81992 16.57191 0 0 0
94 -11.32433 -22.05552 17.46397 0 0 0
95 -11.70997 -22.94587 17.70597 0 0 0
96 -12.09561 -23.18147 18.59803 0 0 0
97 -12.48125 -24.07181 18.84003 0 0 0
98 -6.87010 -17.06060 12.18606 0 0 0
99 -5.88665 -17.15478 12.03131 0 0 0
100 -4.90319 -17.33589 12.03549 0 0 0
101 -3.91974 -17.43007 11.88074 0 0 0
102 -2.93628 -17.61117 11.88492 0 0 0
103 -1.95283 -17.70535 11.73017 0 0 0
104 -0.96938 -17.88646 11.73435 0 0 0
105 0.01408 -17.98064 11.57960 0 0 0
106 0.99753 -18.16175 11.58378 0 0 0
107 1.98099 -18.25592 11.42903 0 0 0
108 2.96444 -18.43703 11.43321 0 0 0
109 3.94789 -18.53121 11.27846 0 0 0
110 -8.29099 -17.02702 11.38252 0 0 0
111 -8.72842 -16.69033 10.54867 0 0 0
112 -9.16585 -17.24413 9.84018 0 0 0
113 -9.60327 -16.90745 9.00633 0 0 0
114 -10.04070 -17.46124 8.29783 0 0 0
115 -10.47813 -17.12456 7.46398 0 0 0
116 -10.91556 -17.67835 6.75549 0 0 0
117 -11.35299 -17.34167 5.92164 0 0 0
118 -11.79042 -17.89546 5.21314 0 0 0
119 -12.22785 -17.55878 4.37929 0 0 0
120 -12.66528 -18.11257 3.67080 0 0 0
121 -13.10271 -17.77589 2.83695 0 0 0
122 -13.52332 -18.54046 2.34857 0 0 0
123 -13.94393 -18.95841 1.54333 0 0 0
124 -14.36454 -19.86474 1.50266 0 0 0
125 -14.78515 -20.28269 0.69743 0 0 0
126 -15.20576 -21.18902 0.65676 0 0 0
134 -12.41691 -17.34375 2.25135 0 0 0
135 -11.73111 -16.67671 1.96027 0 0 0
136 -11.04531 -16.59526 1.23705 0 0 0
137 -10.35951 -15.92822 0.94598 0 0 0
138 -9.67371 -15.84677 0.22276 0 0 0
146 -13.80596 -17.10630 3.07590 0 0 0
147 -14.50920 -16.64590 3.61764 0 0 0
148 -15.21244 -15.94654 3.48978 0 0 0
149 -15.91569 -15.48613 4.03152 0 0 0
150 -16.61893 -14.78678 3.90366 0 0 0
151 -17.32217 -14.32637 4.44540 0 0 0
152 -18.02541 -13.62701 4.31754 0 0 0
153 -18.72866 -13.16661 4.85928 0 0 0
154 -19.43190 -12.46725 4.73142 0 0 0
155 -20.13514 -12.00684 5.27316 0 0 0
156 -20.83839 -11.30748 5.14530 0 0 0
157 -21.54163 -10.84708 5.68704 0 0 0
158 -21.12219 -10.43027 6.49347 0 0 0
159 -20.70275 -10.47253 7.40027 0 0 0
160 -20.28331 -9.70835 7.89027 0 0 0
161 -19.86387 -9.75061 8.79707 0 0 0
162 -19.44443 -8.98642 9.28706 0 0 0
163 -19.02499 -9.02868 10.19386 0 0 0
164 -18.60555 -8.26450 10.68386 0 0 0
165 -18.18611 -8.30676 11.59066 0 0 0
166 -17.76667 -7.54257 12.08065 0 0 0
167 -17.34723 -7.58483 12.98745 0 0 0
168 -16.92779 -6.82065 13.47745 0 0 0
169 -16.50835 -6.86290 14.38425 0 0 0
170 -22.22947 -11.51288 5.97615 0 0 0
171 -22.91731 -12.23403 5.89364 0 0 0
172 -23.60515 -12.66607 6.47692 0 0 0
173 -24.29299 -13.38723 6.39440 0 0 0
174 -24.98083 -13.81927 6.97768 0 0 0
175 -25.66867 -14.54042 6.89517 0 0 0
176 -26.35651 -14.97246 7.47845 0 0 0
177 -27.04435 -15.69362 7.39593 0 0 0
178 -27.73219 -16.12566 7.97921 0 0 0
179 -28.42003 -16.84682 7.89670 0 0 0
180 -29.10787 -17.27886 8.47998 0 0 0
181 -29.79571 -18.00001 8.39746 0 0 0
182 -21.97747 -10.13703 5.13398 0 0 0
183 -22.41331 -9.24558 5.01005 0 0 0
184 -22.84915 -8.90718 4.17607 0 0 0
185 -23.28499 -8.01573 4.05214 0 0 0
186 -23.72084 -7.67733 3.21815 0 0 0
187 -24.15668 -6.78588 3.09422 0 0 0
188 -24.59252 -6.44748 2.26024 0 0 0
189 -25.02836 -5.55603 2.13631 0 0 0
190 -25.46420 -5.21763 1.30232 0 0 0
191 -25.90004 -4.32618 1.17839 0 0 0
192 -26.33588 -3.98778 0.34441 0 0 0
193 -26.77172 -3.09633 0.22048 0 0 0
ITEM: TIMESTEP
1000
ITEM: NUMBER OF ATOMS
193
ITEM: BOX BOUNDS pp pp pp
-1.0000000000000000e+03 1.0000000000000000e+03
-1.0000000000000000e+03 1.0000000000000000e+03
-1.0000000000000000e+03 1.0000000000000000e+03
ITEM: ATOMS id x y z ix iy iz
129 -15.48918 -20.01290 -0.35787 0 0 0
131 -16.05723 -20.76375 -1.13660 0 0 0
132 -16.38746 -21.61782 -0.65343 0 0 0
130 -16.23625 -19.85608 -1.04877 0 0 0
133 -15.99397 -22.53208 -0.97546 0 0 0
128 -14.81503 -19.44037 0.17868 0 0 0
191 -24.78185 -8.43365 1.31646 0 0 0
2 0.74374 1.42551 4.25263 0 0 0
3 0.71280 0.43078 4.28158 0 0 0
4 1.06612 -0.48899 4.40118 0 0 0
5 1.16888 -0.17068 5.31435 0 0 0
6 1.25012 0.26080 6.18082 0 0 0
7 1.98628 0.09025 6.74520 0 0 0
8 1.61403 -0.83550 6.87862 0 0 0
9 0.62846 -0.80930 7.11385 0 0 0
10 0.29665 -1.62635 7.60599 0 0 0
11 0.44200 -2.13049 8.43121 0 0 0
12 0.02254 -1.93511 9.26728 0 0 0
13 0.32995 -2.30093 10.15116 0 0 0
14 0.99837 -1.69917 9.78112 0 0 0
15 1.17524 -1.45671 10.67242 0 0 0
16 1.44202 -0.63750 11.12184 0 0 0
17 0.47764 -0.76364 11.35788 0 0 0
18 -0.00710 -0.55076 12.10648 0 0 0
19 -0.29319 0.11423 12.76795 0 0 0
20 -0.24647 0.65572 13.57063 0 0 0
21 -0.49845 1.31354 14.28547 0 0 0
22 -0.40257 1.02982 15.24861 0 0 0
23 0.01950 1.34056 15.96585 0 0 0
24 -0.80847 1.04988 16.40945 0 0 0
25 -1.28494 0.36058 16.91718 0 0 0
26 -0.27418 -1.98830 10.83891 0 0 0
27 0.25513 -2.60361 11.35925 0 0 0
28 0.92700 -3.14620 10.94875 0 0 0
29 0.70197 -3.48890 10.13171 0 0 0
30 0.93170 -4.43002 10.11321 0 0 0
31 1.60657 -3.87528 9.69870 0 0 0
32 2.49792 -3.54013 10.00957 0 0 0
33 3.19520 -3.95488 9.39238 0 0 0
34 3.96818 -4.51784 9.16408 0 0 0
35 4.54461 -3.75082 8.97532 0 0 0
36 5.37323 -3.61366 9.55084 0 0 0
37 5.55106 -3.21078 8.69099 0 0 0
38 -0.39570 -2.99978 10.46133 0 0 0
39 -1.36995 -3.03613 10.11226 0 0 0
40 -2.32371 -3.10613 10.41699 0 0 0
41 -3.10526 -3.34706 10.85588 0 0 0
42 -3.97374 -3.46646 11.26740 0 0 0
43 -4.73527 -4.16206 11.08784 0 0 0
44 -5.18117 -4.87425 10.66419 0 0 0
45 -4.51371 -5.54293 10.51687 0 0 0
46 -5.37285 -6.00228 10.18851 0 0 0
47 -6.15039 -5.70223 10.62902 0 0 0
48 -6.76090 -6.37913 10.91331 0 0 0
49 -7.64612 -6.66962 10.76452 0 0 0
50 -8.36299 -6.48730 10.18633 0 0 0
51 -8.74990 -6.75698 9.39226 0 0 0
52 -8.95735 -6.52168 8.42712 0 0 0
53 -9.69161 -6.91551 7.94919 0 0 0
54 -9.93814 -6.56793 7.03461 0 0 0
55 -10.14159 -6.40509 5.96451 0 0 0
56 -11.06706 -6.54622 5.75413 0 0 0
57 -11.49479 -5.95264 6.37753 0 0 0
58 -11.64079 -5.03145 6.09092 0 0 0
59 -10.89435 -4.47782 5.86719 0 0 0
60 -11.05154 -3.63836 5.37197 0 0 0
61 -10.10492 -3.44025 5.51506 0 0 0
62 -8.58492 -7.09337 11.09227 0 0 0
63 -9.41635 -7.30320 11.65544 0 0 0
64 -10.23425 -6.89008 12.01750 0 0 0
65 -11.20638 -6.92064 11.89193 0 0 0
66 -11.70792 -7.04038 12.74173 0 0 0
67 -12.19126 -7.85214 12.46802 0 0 0
68 -12.53761 -7.88441 13.38442 0 0 0
69 -13.47009 -8.26140 13.29238 0 0 0
70 -13.83669 -7.37424 13.33107 0 0 0
71 -14.57289 -6.97064 12.89148 0 0 0
72 -15.47147 -7.18448 12.37844 0 0 0
73 -15.75942 -7.37761 13.25832 0 0 0
74 -7.45054 -7.61905 10.61083 0 0 0
75 -7.39166 -8.57866 10.17329 0 0 0
76 -8.11780 -9.17233 10.26898 0 0 0
77 -8.29820 -10.14334 10.19721 0 0 0
78 -8.33756 -10.98254 10.65450 0 0 0
79 -8.25986 -11.77082 11.30629 0 0 0
80 -7.50575 -12.21861 11.68656 0 0 0
81 -7.64548 -13.04352 11.21495 0 0 0
82 -7.46324 -13.79252 10.59145 0 0 0
83 -7.01461 -14.43930 10.09076 0 0 0
84 -6.64481 -15.16151 10.74420 0 0 0
85 -6.62427 -16.00723 10.25571 0 0 0
86 -6.69333 -16.99129 10.63058 0 0 0
87 -7.15094 -16.67435 11.46362 0 0 0
88 -6.99220 -17.12275 12.34091 0 0 0
89 -7.88709 -17.34909 12.15524 0 0 0
90 -8.44865 -18.16089 11.95825 0 0 0
91 -8.75318 -18.68110 12.78438 0 0 0
92 -8.59678 -19.14910 13.65871 0 0 0
93 -8.19704 -19.95748 13.93655 0 0 0
94 -7.60315 -20.21239 14.71192 0 0 0
95 -8.17807 -19.51230 15.03544 0 0 0
96 -8.21971 -19.78393 15.94577 0 0 0
97 -7.82851 -19.37266 16.73897 0 0 0
98 -5.76411 -15.66263 10.71828 0 0 0
99 -4.95182 -15.42365 11.23893 0 0 0
100 -4.39196 -16.16378 11.30119 0 0 0
101 -3.34295 -16.16049 11.46581 0 0 0
102 -2.37741 -16.40156 11.63779 0 0 0
103 -1.71671 -16.49248 12.42589 0 0 0
104 -1.75140 -17.28977 12.97963 0 0 0
105 -1.10806 -17.57320 13.65598 0 0 0
106 -0.87229 -17.83617 14.63084 0 0 0
107 -0.17440 -17.20222 14.70060 0 0 0
108 0.73612 -17.52309 14.65304 0 0 0
109 0.70405 -18.02504 15.49177 0 0 0
110 -7.57721 -16.05161 10.15005 0 0 0
111 -8.10115 -15.67525 9.50084 0 0 0
112 -8.97448 -15.87776 8.94808 0 0 0
113 -9.83175 -15.31401 8.82667 0 0 0
114 -10.63279 -15.49675 8.21547 0 0 0
115 -10.87365 -16.24184 7.60623 0 0 0
116 -10.54867 -16.60764 6.70339 0 0 0
117 -10.70431 -16.74187 5.71752 0 0 0
118 -10.77072 -16.72117 4.71743 0 0 0
119 -11.82746 -16.52535 4.67414 0 0 0
120 -12.73150 -16.72966 4.52121 0 0 0
121 -13.08092 -17.24428 3.80660 0 0 0
122 -13.27682 -18.00524 3.14992 0 0 0
123 -13.92583 -18.59788 2.87165 0 0 0
124 -13.72106 -18.24369 1.97113 0 0 0
125 -13.70259 -19.31408 1.53357 0 0 0
126 -13.36225 -19.94305 0.79838 0 0 0
134 -12.41525 -17.44687 3.02276 0 0 0
135 -11.52979 -17.94616 3.10478 0 0 0
136 -10.70328 -17.78663 2.55261 0 0 0
137 -9.78435 -17.51851 2.40141 0 0 0
138 -10.14610 -16.71127 1.83644 0 0 0
146 -14.09537 -17.35315 3.77937 0 0 0
147 -14.81223 -16.88135 4.22361 0 0 0
148 -15.39071 -16.48144 3.59467 0 0 0
149 -16.17729 -16.04407 3.85623 0 0 0
150 -16.79579 -15.43021 4.36028 0 0 0
151 -17.38948 -15.22416 5.17001 0 0 0
152 -18.13041 -14.76146 5.72024 0 0 0
153 -18.24858 -14.25808 4.87111 0 0 0
154 -18.87369 -13.77897 4.34799 0 0 0
155 -19.69559 -13.08637 4.67821 0 0 0
156 -20.38066 -12.90419 5.41469 0 0 0
157 -20.74713 -12.24441 6.09018 0 0 0
158 -20.35357 -11.78187 6.88752 0 0 0
159 -20.06952 -10.80018 6.54257 0 0 0
160 -19.71749 -10.31443 7.26719 0 0 0
161 -19.14075 -10.52209 8.12001 0 0 0
162 -19.58776 -9.81968 8.56820 0 0 0
163 -19.43086 -9.34416 9.40197 0 0 0
164 -19.97118 -8.69560 9.95163 0 0 0
165 -20.40742 -8.38852 10.75485 0 0 0
166 -20.70235 -8.51599 11.68640 0 0 0
167 -20.63035 -7.96691 12.56170 0 0 0
168 -20.32253 -7.35936 13.30640 0 0 0
169 -20.61962 -7.11050 14.22261 0 0 0
170 -21.18188 -12.44857 6.88417 0 0 0
171 -21.54662 -12.77970 7.74292 0 0 0
172 -22.30287 -12.10259 7.63172 0 0 0
173 -22.96456 -12.14715 6.94685 0 0 0
174 -23.43286 -13.02052 7.03904 0 0 0
175 -24.25808 -12.73229 7.46384 0 0 0
176 -25.15499 -12.57487 7.07273 0 0 0
177 -26.19734 -12.59496 6.91357 0 0 0
178 -27.12842 -12.88548 6.94567 0 0 0
179 -27.44365 -13.29571 7.82196 0 0 0
180 -28.14999 -12.80259 8.30656 0 0 0
181 -28.31730 -11.80707 8.37584 0 0 0
182 -21.02363 -11.34267 5.81449 0 0 0
183 -21.84184 -10.80940 5.70084 0 0 0
184 -22.49285 -10.21608 5.27980 0 0 0
185 -22.79538 -9.21146 5.28558 0 0 0
186 -23.04159 -8.38263 4.78147 0 0 0
187 -23.26747 -8.34546 3.89164 0 0 0
188 -23.97223 -8.14583 3.18038 0 0 0
189 -23.95621 -8.83556 2.42754 0 0 0
190 -24.57106 -9.28984 1.83744 0 0 0
139 -9.54638 -16.29330 1.21432 0 0 0
193 -24.87194 -6.69461 0.57685 0 0 0
192 -24.72331 -7.49964 1.07887 0 0 0
141 -9.39382 -14.45969 0.71748 0 0 0
1 1.03421 2.28609 4.77205 0 0 0
140 -9.28374 -15.30798 1.13631 0 0 0
143 -8.28319 -15.22726 0.91649 0 0 0
142 -8.51715 -14.58938 0.22819 0 0 0
144 -7.69118 -15.49777 0.10316 0 0 0
127 -14.17201 -20.15890 0.16768 0 0 0
145 -7.20339 -15.86861 0.92977 0 0 0
ITEM: TIMESTEP
2000
ITEM: NUMBER OF ATOMS
193
ITEM: BOX BOUNDS pp pp pp
-1.0000000000000000e+03 1.0000000000000000e+03
-1.0000000000000000e+03 1.0000000000000000e+03
-1.0000000000000000e+03 1.0000000000000000e+03
ITEM: ATOMS id x y z ix iy iz
132 -11.96563 -20.11561 -0.81856 0 0 0
145 -10.13323 -13.41490 -0.15610 0 0 0
133 -11.22022 -20.79443 -0.63534 0 0 0
144 -9.51092 -14.03827 -0.64151 0 0 0
143 -8.87108 -14.79597 -0.67132 0 0 0
131 -12.83797 -19.96435 -0.36630 0 0 0
191 -23.41632 -7.41299 3.23898 0 0 0
2 0.85823 2.85034 6.42850 0 0 0
3 0.49225 3.40272 7.28456 0 0 0
4 0.36196 2.87841 8.09479 0 0 0
5 -0.26378 2.11994 8.40657 0 0 0
6 -0.83431 1.40404 8.60106 0 0 0
7 -1.20957 0.70494 9.24234 0 0 0
8 -1.79866 -0.08795 9.08886 0 0 0
9 -1.28803 -0.88550 9.40320 0 0 0
10 -1.17724 -1.76790 9.83139 0 0 0
11 -1.63985 -2.61632 9.65205 0 0 0
12 -2.03453 -3.15093 10.31524 0 0 0
13 -1.66403 -3.97833 10.84331 0 0 0
14 -1.69642 -3.73151 11.77899 0 0 0
15 -0.83861 -3.39615 12.20240 0 0 0
16 -1.25141 -2.75955 12.81525 0 0 0
17 -1.01786 -3.02755 13.69582 0 0 0
18 -0.83738 -2.50420 14.44074 0 0 0
19 -0.00006 -2.06924 14.15639 0 0 0
20 0.06963 -1.30239 13.52463 0 0 0
21 -0.72884 -0.80427 13.32314 0 0 0
22 -1.53589 -0.43221 13.42944 0 0 0
23 -1.74558 -0.11513 14.31036 0 0 0
24 -1.35800 -1.00761 14.40769 0 0 0
25 -1.26261 -1.43057 15.30446 0 0 0
26 -0.81537 -3.78221 10.61649 0 0 0
27 0.18714 -3.89110 10.71876 0 0 0
28 1.04043 -4.04638 10.19872 0 0 0
29 1.22173 -3.07557 10.33532 0 0 0
30 1.36882 -2.20201 10.12050 0 0 0
31 2.31705 -2.38747 10.02983 0 0 0
32 3.09733 -1.90308 10.32662 0 0 0
33 3.53353 -1.99383 9.44621 0 0 0
34 4.18354 -2.09870 8.70474 0 0 0
35 4.62772 -2.02132 7.83987 0 0 0
36 4.75874 -3.18638 7.89107 0 0 0
37 4.67931 -3.68835 8.69292 0 0 0
38 -1.88582 -5.01366 10.91075 0 0 0
39 -2.82334 -5.11238 11.16637 0 0 0
40 -3.39711 -5.59069 10.52475 0 0 0
41 -4.37627 -5.62598 10.43636 0 0 0
42 -5.08481 -6.26359 10.13206 0 0 0
43 -5.62256 -7.03267 9.86850 0 0 0
44 -5.54546 -7.58119 9.04093 0 0 0
45 -5.81439 -8.36658 9.51993 0 0 0
46 -6.59808 -8.92084 9.74734 0 0 0
47 -7.12197 -8.19145 10.15003 0 0 0
48 -8.09303 -8.44800 10.14617 0 0 0
49 -8.99248 -8.73230 9.84120 0 0 0
50 -9.53883 -8.08374 9.36736 0 0 0
51 -9.63324 -7.63440 8.50869 0 0 0
52 -9.63898 -8.11633 7.67563 0 0 0
53 -9.45518 -8.11343 6.71711 0 0 0
54 -10.14415 -8.34998 6.11131 0 0 0
55 -10.25370 -7.38984 6.08205 0 0 0
56 -10.93590 -6.80483 5.83830 0 0 0
57 -10.91247 -5.76577 5.74176 0 0 0
58 -11.54025 -5.13156 5.44357 0 0 0
59 -11.20936 -4.14572 5.29081 0 0 0
60 -11.01598 -3.59868 6.06970 0 0 0
61 -11.15877 -2.75456 5.60218 0 0 0
62 -9.93071 -8.92091 9.66531 0 0 0
63 -10.61215 -8.71268 10.28632 0 0 0
64 -11.14847 -8.78125 11.05636 0 0 0
65 -11.48634 -8.01551 11.55219 0 0 0
66 -11.46584 -8.47209 12.37571 0 0 0
67 -11.33126 -8.87006 13.26962 0 0 0
68 -11.72502 -8.58223 14.11815 0 0 0
69 -12.58258 -8.45093 14.46474 0 0 0
70 -13.47600 -8.72973 13.98706 0 0 0
71 -14.48768 -8.45177 14.00862 0 0 0
72 -14.78605 -7.67001 13.46245 0 0 0
73 -15.00621 -6.75954 13.91341 0 0 0
74 -8.91532 -8.99446 10.79162 0 0 0
75 -8.26861 -8.73165 11.48077 0 0 0
76 -7.82840 -9.52221 11.15478 0 0 0
77 -7.33223 -10.36980 10.97831 0 0 0
78 -7.30390 -11.32805 10.83092 0 0 0
79 -7.24084 -12.09681 11.39686 0 0 0
80 -6.74109 -12.86041 11.72619 0 0 0
81 -5.84329 -13.09704 11.98726 0 0 0
82 -5.37051 -13.72981 11.40873 0 0 0
83 -5.96999 -14.37382 11.06392 0 0 0
84 -6.01297 -15.47778 10.99584 0 0 0
85 -6.29532 -16.24947 11.57991 0 0 0
86 -6.96432 -16.23666 12.28464 0 0 0
87 -7.84312 -16.56384 12.72256 0 0 0
88 -8.19372 -17.37399 13.19484 0 0 0
89 -8.25547 -18.36143 13.04056 0 0 0
90 -7.87928 -19.14951 13.48116 0 0 0
91 -7.37288 -19.16735 14.40067 0 0 0
92 -8.27034 -19.00250 14.60827 0 0 0
93 -7.91867 -19.17817 15.51222 0 0 0
94 -7.43584 -20.00086 15.65013 0 0 0
95 -7.49162 -20.76560 16.27866 0 0 0
96 -7.49089 -21.47085 15.64724 0 0 0
97 -7.34646 -22.29696 16.07292 0 0 0
98 -5.30437 -16.19647 11.89126 0 0 0
99 -4.94121 -16.43828 12.80366 0 0 0
100 -4.17661 -16.05419 12.30367 0 0 0
101 -3.25615 -16.01700 12.13442 0 0 0
102 -2.35659 -15.55859 12.06833 0 0 0
103 -1.61425 -15.11003 11.60477 0 0 0
104 -0.91839 -14.93018 12.22610 0 0 0
105 0.00165 -14.71031 12.13617 0 0 0
106 0.85724 -15.12045 11.82379 0 0 0
107 1.15831 -16.01963 11.99479 0 0 0
108 0.68582 -16.74834 12.41019 0 0 0
109 -0.21510 -17.02514 12.54920 0 0 0
110 -7.11300 -16.04526 11.13796 0 0 0
111 -8.05814 -16.14631 10.81625 0 0 0
112 -8.89772 -16.85552 10.83023 0 0 0
113 -9.09078 -17.22380 10.01344 0 0 0
114 -9.58319 -17.04565 9.11866 0 0 0
115 -9.84547 -17.03236 8.13736 0 0 0
116 -9.62461 -17.52072 7.30494 0 0 0
117 -10.29245 -17.07452 6.68616 0 0 0
118 -10.61294 -16.81499 5.81375 0 0 0
119 -11.13531 -16.84091 4.98242 0 0 0
120 -11.72331 -16.37253 4.32807 0 0 0
121 -12.32982 -16.01138 3.70785 0 0 0
122 -12.82010 -16.44648 2.96585 0 0 0
123 -13.16538 -16.81823 2.14920 0 0 0
124 -12.48785 -17.44225 2.38105 0 0 0
125 -12.93949 -18.19472 2.74123 0 0 0
126 -13.08558 -19.05911 2.29558 0 0 0
134 -12.14404 -15.08634 3.93395 0 0 0
135 -12.20995 -14.43155 3.19229 0 0 0
136 -11.65546 -14.80613 2.53352 0 0 0
137 -10.78935 -14.75371 1.93991 0 0 0
138 -9.90654 -14.83737 1.48911 0 0 0
146 -13.38177 -15.58561 3.76728 0 0 0
147 -14.23994 -15.37143 4.18948 0 0 0
148 -15.01465 -15.18116 3.53415 0 0 0
149 -15.76933 -14.68024 3.22384 0 0 0
150 -16.57691 -14.20659 3.61197 0 0 0
151 -17.11979 -13.88324 4.34884 0 0 0
152 -18.10344 -13.50967 4.38150 0 0 0
153 -19.00077 -13.84753 4.74321 0 0 0
154 -19.30702 -12.94597 5.00820 0 0 0
155 -20.32845 -12.85444 5.20701 0 0 0
156 -21.06098 -12.98649 5.86527 0 0 0
157 -21.71339 -12.37634 5.55477 0 0 0
158 -21.52019 -11.56528 6.04415 0 0 0
159 -22.14004 -10.95265 6.46752 0 0 0
160 -22.30901 -10.07524 6.63245 0 0 0
161 -23.10453 -9.95829 7.17313 0 0 0
162 -22.98096 -9.78974 8.16911 0 0 0
163 -22.76551 -9.11176 8.86866 0 0 0
164 -23.11166 -8.18519 9.28104 0 0 0
165 -22.73969 -7.37676 9.74110 0 0 0
166 -22.86149 -6.41730 9.64573 0 0 0
167 -22.18551 -5.81235 9.24194 0 0 0
168 -22.46731 -4.90588 9.44550 0 0 0
169 -22.93454 -4.39067 10.08519 0 0 0
170 -22.36781 -13.17343 5.60402 0 0 0
171 -23.36929 -12.98967 5.66900 0 0 0
172 -23.63261 -12.15144 5.98749 0 0 0
173 -24.19559 -12.19152 6.75684 0 0 0
174 -24.59489 -11.87541 7.60584 0 0 0
175 -25.55347 -11.76936 7.53658 0 0 0
176 -26.49273 -12.00801 7.56788 0 0 0
177 -27.49100 -11.99566 7.66970 0 0 0
178 -28.37783 -11.70835 7.97747 0 0 0
179 -29.23037 -11.88427 7.51945 0 0 0
180 -29.88884 -12.54895 7.16045 0 0 0
181 -29.22578 -13.15433 7.48330 0 0 0
182 -21.28354 -11.96035 4.78576 0 0 0
183 -20.39236 -11.57489 4.38879 0 0 0
184 -19.41642 -11.35585 4.30881 0 0 0
185 -19.61603 -10.48368 3.93868 0 0 0
186 -19.83933 -9.50620 4.01148 0 0 0
187 -20.47589 -8.82094 3.84128 0 0 0
188 -21.18748 -8.43226 4.49452 0 0 0
189 -21.94499 -8.28758 3.81227 0 0 0
190 -22.54998 -7.88806 3.10029 0 0 0
139 -9.60649 -14.63832 2.37548 0 0 0
193 -24.16351 -5.91572 2.78063 0 0 0
192 -23.50370 -6.45304 3.26319 0 0 0
141 -8.53843 -14.79271 1.10071 0 0 0
1 0.13236 2.25879 6.16916 0 0 0
140 -8.83442 -14.42424 1.89454 0 0 0
142 -9.05375 -15.12808 0.19758 0 0 0
129 -13.64846 -20.55455 0.36679 0 0 0
130 -13.71214 -19.70490 -0.12533 0 0 0
127 -13.01643 -20.03886 1.99479 0 0 0
128 -13.26993 -20.65413 1.24856 0 0 0
ITEM: TIMESTEP
3000
ITEM: NUMBER OF ATOMS
193
ITEM: BOX BOUNDS pp pp pp
-1.0000000000000000e+03 1.0000000000000000e+03
-1.0000000000000000e+03 1.0000000000000000e+03
-1.0000000000000000e+03 1.0000000000000000e+03
ITEM: ATOMS id x y z ix iy iz
145 -9.54490 -11.52241 -1.97772 0 0 0
144 -9.00655 -11.57475 -1.07982 0 0 0
143 -9.02369 -11.78487 -0.10657 0 0 0
191 -23.00882 -4.61193 6.40162 0 0 0
2 -0.99959 3.36120 8.03006 0 0 0
3 -0.81004 2.98236 8.96225 0 0 0
4 -1.59334 2.44150 9.20142 0 0 0
5 -0.97591 1.61959 9.34427 0 0 0
6 -0.68971 1.35294 8.48793 0 0 0
7 -1.34478 0.77365 8.04272 0 0 0
8 -2.01321 0.48966 8.70604 0 0 0
9 -1.22336 0.41362 9.28089 0 0 0
10 -1.51690 -0.36430 8.80454 0 0 0
11 -1.35059 -1.35856 8.99016 0 0 0
12 -0.80875 -2.07456 9.27676 0 0 0
13 -0.40516 -2.93606 9.39710 0 0 0
14 -0.59907 -2.43255 10.28534 0 0 0
15 -0.51284 -2.87151 11.13418 0 0 0
16 -1.04967 -2.89781 12.02058 0 0 0
17 -0.92993 -2.00133 12.10002 0 0 0
18 -0.47588 -1.40355 12.77586 0 0 0
19 0.16304 -1.85528 13.37797 0 0 0
20 0.21318 -1.59710 14.32108 0 0 0
21 -0.73304 -1.75975 14.17125 0 0 0
22 -1.38635 -2.36818 14.69091 0 0 0
23 -1.48133 -2.54332 15.60152 0 0 0
24 -1.51018 -1.96888 16.30503 0 0 0
25 -2.39935 -1.68697 16.22282 0 0 0
26 -0.10779 -3.83706 9.49226 0 0 0
27 0.82767 -3.91566 9.10638 0 0 0
28 1.83517 -3.49288 8.99637 0 0 0
29 1.75730 -3.39649 8.09908 0 0 0
30 2.51105 -2.80934 8.09881 0 0 0
31 2.45304 -2.68609 7.08183 0 0 0
32 3.22543 -2.38758 6.52349 0 0 0
33 4.10539 -2.13404 7.01390 0 0 0
34 3.88885 -2.08406 7.96638 0 0 0
35 3.71142 -1.44226 8.64879 0 0 0
36 4.32226 -0.60039 8.66143 0 0 0
37 4.52478 -0.21779 7.81621 0 0 0
38 -1.09962 -3.50796 9.08768 0 0 0
39 -2.07205 -3.39056 9.00755 0 0 0
40 -2.79496 -3.74955 9.52196 0 0 0
41 -3.52632 -4.04166 10.19260 0 0 0
42 -4.27313 -4.67760 9.94291 0 0 0
43 -4.92602 -5.39089 9.87079 0 0 0
44 -4.80041 -6.24369 9.35640 0 0 0
45 -5.69524 -6.36860 9.34471 0 0 0
46 -6.04167 -7.31735 9.33020 0 0 0
47 -6.84644 -7.00584 9.78079 0 0 0
48 -7.67858 -7.22784 10.24703 0 0 0
49 -8.64267 -7.71496 10.30950 0 0 0
50 -8.79803 -7.09633 9.54725 0 0 0
51 -9.19951 -6.40431 8.96980 0 0 0
52 -9.87512 -6.23672 8.26868 0 0 0
53 -10.40328 -7.08666 8.20697 0 0 0
54 -11.10966 -6.85084 7.51928 0 0 0
55 -11.93366 -6.95020 6.98401 0 0 0
56 -11.60140 -6.51250 6.15510 0 0 0
57 -10.98719 -6.88651 5.51714 0 0 0
58 -10.32973 -6.62662 4.72693 0 0 0
59 -9.72563 -5.82873 4.93168 0 0 0
60 -9.46018 -5.00773 4.41050 0 0 0
61 -8.87445 -5.62066 3.80931 0 0 0
62 -9.16679 -8.17705 10.98189 0 0 0
63 -8.50687 -7.76910 11.58495 0 0 0
64 -8.90825 -8.13158 12.36999 0 0 0
65 -9.73615 -8.47449 12.78919 0 0 0
66 -10.51679 -8.61680 13.35169 0 0 0
67 -11.44713 -8.96685 13.51804 0 0 0
68 -12.40387 -9.13666 13.32001 0 0 0
69 -12.46012 -9.76936 14.02719 0 0 0
70 -13.46255 -9.88646 13.86686 0 0 0
71 -14.37690 -10.05434 13.51886 0 0 0
72 -14.90962 -9.34556 13.83065 0 0 0
73 -14.28087 -8.79513 14.39057 0 0 0
74 -9.05622 -8.44595 9.80783 0 0 0
75 -8.68116 -9.28804 9.72198 0 0 0
76 -9.28313 -9.87059 9.19778 0 0 0
77 -9.32003 -10.49334 8.42013 0 0 0
78 -8.72772 -11.35633 7.98606 0 0 0
79 -8.43601 -12.25732 8.13162 0 0 0
80 -7.52551 -12.46447 8.53492 0 0 0
81 -6.68326 -12.72626 8.81743 0 0 0
82 -6.45131 -12.94088 9.77691 0 0 0
83 -5.88436 -13.41647 10.40168 0 0 0
84 -6.51351 -14.07254 10.74095 0 0 0
85 -7.04350 -14.72775 11.31983 0 0 0
86 -7.64814 -14.98927 12.02287 0 0 0
87 -7.19683 -15.57464 12.64933 0 0 0
88 -6.52999 -16.21788 13.05600 0 0 0
89 -6.19328 -17.12484 12.82521 0 0 0
90 -6.03135 -18.01575 12.53367 0 0 0
91 -6.12186 -18.51103 13.37405 0 0 0
92 -5.96315 -18.79758 14.26241 0 0 0
93 -5.46981 -18.87453 15.07374 0 0 0
94 -6.38070 -18.92019 15.41574 0 0 0
95 -6.76177 -19.73470 15.82604 0 0 0
96 -7.35949 -20.31331 16.30138 0 0 0
97 -8.23433 -20.81768 16.51641 0 0 0
98 -6.60299 -14.11141 12.04202 0 0 0
99 -5.69561 -13.65569 12.00648 0 0 0
100 -4.79520 -13.94136 12.39537 0 0 0
101 -4.68875 -14.08161 13.37167 0 0 0
102 -3.66203 -13.85978 13.45779 0 0 0
103 -2.91157 -14.21157 14.04187 0 0 0
104 -2.04842 -14.62795 13.93690 0 0 0
105 -1.14844 -14.27732 13.75087 0 0 0
106 -0.38052 -14.64166 14.26537 0 0 0
107 0.47577 -15.01207 14.21025 0 0 0
108 1.09949 -14.75343 13.43186 0 0 0
109 0.70690 -15.37731 12.80773 0 0 0
110 -7.77001 -15.29078 10.91940 0 0 0
111 -7.81680 -16.24450 11.01442 0 0 0
112 -8.12065 -17.18402 10.81643 0 0 0
113 -8.54145 -16.98993 10.04732 0 0 0
114 -8.96025 -16.74366 9.20845 0 0 0
115 -8.71178 -16.57244 8.30476 0 0 0
116 -9.62209 -16.38849 7.97945 0 0 0
117 -10.11759 -16.03911 7.19660 0 0 0
118 -10.89535 -15.94795 6.61963 0 0 0
119 -11.80268 -15.52776 6.39543 0 0 0
120 -12.65346 -15.56185 5.87920 0 0 0
121 -13.14135 -15.94444 5.06958 0 0 0
122 -13.32560 -16.81801 4.68063 0 0 0
123 -13.32219 -17.41848 3.94587 0 0 0
124 -13.89956 -17.97412 3.41958 0 0 0
125 -14.67538 -18.50922 3.43421 0 0 0
126 -15.00838 -17.72456 3.00293 0 0 0
134 -12.32909 -16.25820 4.52898 0 0 0
135 -12.04300 -16.04587 3.60261 0 0 0
136 -11.42988 -15.69518 2.83715 0 0 0
137 -10.81844 -14.98924 2.51136 0 0 0
138 -10.21218 -14.92005 1.77583 0 0 0
146 -13.86337 -15.50381 5.53396 0 0 0
147 -14.69599 -15.84658 5.88461 0 0 0
148 -15.47436 -15.57947 5.40007 0 0 0
149 -16.33987 -15.37933 4.91217 0 0 0
150 -17.29736 -15.62735 5.04919 0 0 0
151 -17.83095 -14.92543 5.57601 0 0 0
152 -18.77977 -14.89683 5.34915 0 0 0
153 -19.34561 -14.15495 5.39462 0 0 0
154 -19.48903 -13.22212 5.44678 0 0 0
155 -20.00565 -12.37775 5.45959 0 0 0
156 -20.23703 -11.52568 5.91319 0 0 0
157 -20.87320 -11.06029 6.58790 0 0 0
158 -20.35957 -10.32058 7.03836 0 0 0
159 -19.68767 -9.64929 6.86929 0 0 0
160 -18.90314 -8.99194 6.87346 0 0 0
161 -19.36107 -8.40487 7.55300 0 0 0
162 -19.72734 -8.40193 8.37294 0 0 0
163 -20.48940 -7.88575 8.81965 0 0 0
164 -21.31715 -8.16465 8.30628 0 0 0
165 -22.27223 -8.49204 8.31056 0 0 0
166 -23.05548 -7.96368 8.08121 0 0 0
167 -23.87502 -7.40223 7.96444 0 0 0
168 -24.17586 -7.40524 6.96922 0 0 0
169 -23.85750 -7.81443 6.10562 0 0 0
170 -21.22212 -11.99579 6.58224 0 0 0
171 -21.60652 -11.81246 7.48801 0 0 0
172 -22.20686 -11.26050 8.13770 0 0 0
173 -22.66862 -11.93206 8.77918 0 0 0
174 -22.84548 -12.77351 9.25701 0 0 0
175 -23.65961 -13.36191 9.44752 0 0 0
176 -24.55943 -13.32093 9.86302 0 0 0
177 -25.32285 -13.42501 9.18483 0 0 0
178 -26.28182 -13.58810 8.93343 0 0 0
179 -27.26774 -13.31425 8.59200 0 0 0
180 -27.77223 -12.64805 8.09252 0 0 0
181 -28.65595 -12.47546 8.26434 0 0 0
182 -21.31632 -10.24656 6.99749 0 0 0
183 -21.98956 -9.60510 7.07319 0 0 0
184 -22.44533 -8.73299 6.72763 0 0 0
185 -22.74754 -7.78329 6.48650 0 0 0
186 -22.98231 -7.08640 5.77455 0 0 0
187 -23.49806 -6.60088 5.15157 0 0 0
188 -23.42133 -5.76971 5.54457 0 0 0
189 -24.07253 -5.30912 5.98469 0 0 0
190 -23.48161 -4.64438 5.62491 0 0 0
139 -10.71183 -14.64046 0.99175 0 0 0
193 -21.72244 -4.10704 7.28268 0 0 0
192 -22.49403 -4.81539 7.22510 0 0 0
141 -10.14301 -13.31180 0.35284 0 0 0
1 -0.34461 3.41719 7.22014 0 0 0
140 -10.80709 -13.61478 0.99685 0 0 0
133 -11.70335 -19.02393 0.95402 0 0 0
129 -14.53413 -18.84064 1.19390 0 0 0
128 -14.72300 -18.59051 2.19978 0 0 0
127 -15.54069 -18.51264 2.66308 0 0 0
132 -12.43766 -19.20823 0.39362 0 0 0
130 -14.17038 -19.57085 0.77158 0 0 0
131 -13.20713 -19.65502 0.73953 0 0 0
142 -9.55731 -12.62508 -0.12106 0 0 0
ITEM: TIMESTEP
4000
ITEM: NUMBER OF ATOMS
193
ITEM: BOX BOUNDS pp pp pp
-1.0000000000000000e+03 1.0000000000000000e+03
-1.0000000000000000e+03 1.0000000000000000e+03
-1.0000000000000000e+03 1.0000000000000000e+03
ITEM: ATOMS id x y z ix iy iz
145 -12.14614 -10.99465 -3.15208 0 0 0
144 -11.30402 -11.31752 -2.99472 0 0 0
143 -11.53067 -11.39810 -2.08382 0 0 0
141 -11.21657 -12.62498 -0.69686 0 0 0
142 -11.72091 -12.17971 -1.44143 0 0 0
140 -12.10518 -13.14512 -0.69385 0 0 0
139 -12.33022 -14.18597 -0.72157 0 0 0
191 -23.49020 -7.21201 8.08309 0 0 0
2 -0.42841 1.11317 9.82954 0 0 0
3 -0.70413 1.21281 10.79272 0 0 0
4 -0.50629 0.22082 10.79326 0 0 0
5 -0.77603 -0.07652 9.91757 0 0 0