#atom_style bond #no stiffness
atom_style angle #with stiffness

boundary        p p p
###
# Pair interactions require lists of neighbours to be calculated
###

#neighbor 0.3 bin
neighbor 4 bin

neigh_modify every 1 delay 1 check yes
atom_modify sort 0 0
### Generate RESTART file, SPECIAL format, not a .txt file ###
### Useful if simulation crashes ###

restart 1000000 linear/restarts3/$f.restart
restart 1000000 linear/restarts3/bb1000nuc0bl0bn0d30tot1000.restart
#############################



### READ "start" data file ###

read_data linear/$f.dat
read_data linear/bb1000nuc0bl0bn0d30tot1000.dat
Reading data file ...
  orthogonal box = (-1000 -1000 -1000) to (1000 1000 1000)
  1 by 1 by 1 MPI processor grid
  reading atoms ...
  1000 atoms
  scanning bonds ...
  1 = max bonds/atom
  scanning angles ...
  1 = max angles/atom
  reading bonds ...
  999 bonds
  reading angles ...
  998 angles
Finding 1-2 1-3 1-4 neighbors ...
  special bond factors lj:    0        0        0       
  special bond factors coul:  0        0        0       
     2 = max # of 1-2 neighbors
     2 = max # of 1-3 neighbors
     4 = max # of 1-4 neighbors
     6 = max # of special neighbors
  special bonds CPU = 0.001 seconds
  read_data CPU = 0.066 seconds

######################

### READ "REstart" data file ###

######################



###
# Define groups (atom type 1 is group 'all')
###
group all type 1
1000 atoms in group all


###
# Dump configs - "simple dumpings"
###

###
# Dump configs + box coords
###

dump   1   all   custom   1000  linear/trjs3/$f.lammpstrj  id  x y z  ix iy iz
dump   1   all   custom   1000  linear/trjs3/bb1000nuc0bl0bn0d30tot1000.lammpstrj  id  x y z  ix iy iz
dump_modify   1   format line "%d %.5f %.5f %.5f %d %d %d"

########################################################################


###################################################################
# Stiffness term
#
# E = K * (1+cos(theta)), K>0
#
angle_style   cosine
#change this coefficient to change stiffness (e.g. 1,5,10)
angle_coeff   1 1.0
###################################################################

###################################################################
# Pair interaction between non-bonded atoms
#
#  Lennard-Jones 12-6 potential with cutoff:
#  potential E=4epsilon[ (sigma/r)^12 - (sigma/r)^6]  for r<r_cut
#
#  1.12246 = 2^(1/6) is the minimum of the potential


pair_style      lj/cut 1.12246152962189
#pair_style      lj/cut 3

#
#  pair_modify shift yes adds a constant to the potential such

#  that E(r_cut)=0. Forces remains unchanged.
#

pair_modify     shift yes

#
#  pair_coeff for lj/cut, specify 4:
#    * atom type interacting with
#    * atom type
#    * epsilon (energy units)
#    * sigma (distance units)
#

pair_coeff      1 1 1.0 1.0
###################################################################

###################################################################
# Pair interaction between non-bonded atoms
#
#  soft potential, for PUSHING apart overlapping atoms
#  potential E=A*(1 + cos(pi*r/r_c))
#
#  1.12246 = 2^(1/6) is the cut-off r_c

#pair_style     soft 1.12246152962189

#
#  pair_coeff for soft, specify 3:
#    * atom type interacting with
#    * atom type
#    * A
#
#

#pair_coeff      1 1 100.0
###################################################################

###################################################################
# Pair interaction between bonded atoms
#
# Fene potential + Lennard Jones 12-6:

#
#  E= - 0.5 K R0^2 ln[ 1- (r/R0)^2]
#     + 4epsilon[ (sigma/r)^12 - (sigma/r)^6] + epsilon
#

bond_style   fene


#
# For style fene, specify:
#   * bond type
#   * K (energy/distance^2)
#   * R0 (distance)
#   * epsilon (energy)  (LJ component)
#   * sigma (distance)  (LJ component)
#


special_bonds fene #<=== I M P O R T A N T (new command)
Finding 1-2 1-3 1-4 neighbors ...
  special bond factors lj:    0        1        1       
  special bond factors coul:  0        1        1       
     2 = max # of 1-2 neighbors
     6 = max # of special neighbors
  special bonds CPU = 0.000 seconds

bond_coeff   1   30   2   1.0   1.0


###################################################

###################################################################
# Pair interaction between bonded atoms
#
# Harmonic potential:
#
#  E= K * (R-R0)^2
#

#bond_style   harmonic

#
# For style harmonic, specify:
#   * bond type
#   * K (energy/distance^2)
#   * R0 (distance)
#

#bond_coeff   1   60.0   1.0
#bond_coeff   2   harmonic 0.1   1.0

###################################################
compute 1 all gyration
variable rog equal c_1
#compute 2 all coord/atom cutoff 1.1

#dump 2 all custom 10000 contact_number.dump id c_2


###
# Set up fixes
###
thermo_style   custom   step  temp enthalpy c_1
fix 1 all nve   ###NVE ensemble

fix 2 all   langevin   1.0 1.0 1.0  158102   ###Langevin integrator Tstart Tstop 1/friction rndseed


##### Sample thermodynamic info  (temperature, energy, pressure, etc.) #####
thermo 1000









############################################################################

###
# set timestep of integrator

timestep 0.01

###
# run integration for a number of steps
###
#run 0
#variable r equal c_1
#if "$r < 63.1" then "quit 1"

# lj potential minimum, cause molecule to explore
run 100000
Generated 0 of 0 mixed pair_coeff terms from geometric mixing rule
Last active /omp style is angle_style cosine/omp
Neighbor list info ...
  update: every = 1 steps, delay = 1 steps, check = yes
  max neighbors/atom: 2000, page size: 100000
  master list distance cutoff = 5.1224615
  ghost atom cutoff = 5.1224615
  binsize = 2.5612308, bins = 781 781 781
  1 neighbor lists, perpetual/occasional/extra = 1 0 0
  (1) pair lj/cut/omp, perpetual
      attributes: half, newton on, omp
      pair build: half/bin/newton/omp
      stencil: half/bin/3d
      bin: standard
WARNING: Communication cutoff 5.12246152962189 is shorter than a bond length based estimate of 5.455. This may lead to errors. (src/comm.cpp:723)
Per MPI rank memory allocation (min/avg/max) = 1860 | 1860 | 1860 Mbytes
   Step          Temp         Enthalpy         c_1      
         0   0              13.413297      250.00023    
      1000   0.93712122     18.431633      249.75594    
      2000   0.9496488      18.763852      249.631      
      3000   1.0023728      18.72656       249.53154    
      4000   1.0050233      18.612528      249.38626    
      5000   0.9814861      18.701852      249.11763    
      6000   1.0350884      19.182255      249.0628     
      7000   1.0172502      19.171966      248.87619    
      8000   1.0649611      19.033628      248.65628    
      9000   1.0284751      18.873358      248.70188    
     10000   0.96880011     18.941673      248.51645    
     11000   0.96417618     18.687285      248.36247    
     12000   0.93513765     19.486124      247.95832    
     13000   1.021142       18.894638      247.84015    
     14000   0.98932992     19.032506      247.62642    
     15000   0.97235929     18.673275      247.5912     
     16000   1.003956       18.728128      247.28915    
     17000   1.0205123      19.104605      246.9469     
     18000   1.0247594      18.56677       246.65939    
     19000   0.946558       18.831037      246.33609    
     20000   1.0030165      18.890784      246.32431    
     21000   0.97322505     19.407925      246.23106    
     22000   1.0032845      18.667707      245.90766    
     23000   1.047873       19.197943      245.72599    
     24000   0.98925204     19.245535      245.42537    
     25000   0.99404714     19.061011      245.07361    
     26000   0.98755062     18.866575      244.99879    
     27000   1.0118063      19.222632      244.82137    
     28000   0.98705257     19.150174      244.45575    
     29000   0.9519664      18.834788      244.52716    
     30000   1.0268743      18.97981       244.60918    
     31000   1.0422041      19.296694      244.36717    
     32000   0.98859937     18.882992      244.43382    
     33000   0.97428837     18.909236      244.14101    
     34000   0.98920096     19.038917      243.91533    
     35000   1.0132367      19.165006      243.77343    
     36000   1.012687       19.168313      243.41322    
     37000   0.98313911     18.798535      243.20469    
     38000   1.0068917      19.005403      243.07415    
     39000   1.0188557      19.074224      243.05994    
     40000   1.0084501      19.433864      242.90031    
     41000   0.98314852     19.269254      242.71316    
     42000   0.97765935     19.275424      242.54558    
     43000   1.0042716      19.000549      242.28407    
     44000   1.0071129      18.99345       242.1712     
     45000   0.98770448     19.195463      242.13044    
     46000   0.99628487     18.55158       241.87642    
     47000   0.99205762     19.130858      241.91985    
     48000   1.0116147      19.031207      241.73194    
     49000   0.99486789     19.075889      241.49349    
     50000   0.98358609     19.625902      241.18716    
     51000   0.98402324     18.979405      241.13346    
     52000   0.99781704     19.164884      241.00072    
     53000   1.0122712      18.944376      240.94791    
     54000   0.95384517     19.204324      241.05639    
     55000   0.94456137     18.768037      240.70929    
     56000   1.0080843      19.090551      240.56937    
     57000   1.0448944      19.540775      240.39089    
     58000   1.0141643      19.433755      240.50989    
     59000   0.99635133     19.573774      240.33599    
     60000   1.0068764      19.237241      240.00769    
     61000   1.0299617      19.42516       240.03305    
     62000   1.0129891      19.707747      239.80152    
     63000   0.95943182     19.400676      239.75827    
     64000   0.97447622     18.84608       239.35685    
     65000   1.0094031      19.293103      239.36046    
     66000   0.97149102     19.161513      239.09871    
     67000   1.0277596      19.438733      238.86892    
     68000   1.006155       19.282552      238.62387    
     69000   1.0109106      19.844702      238.14655    
     70000   1.0062892      19.84428       237.86728    
     71000   0.97681285     19.52377       237.44716    
     72000   0.98764111     19.105954      237.38944    
     73000   1.0647108      19.798373      237.3321     
     74000   1.029631       19.732474      237.37634    
     75000   1.0011913      19.430611      237.4278     
     76000   0.99289374     19.757015      237.24704    
     77000   0.96407444     19.182286      236.90103    
     78000   1.0301364      19.497563      236.81654    
     79000   0.97965807     19.247208      236.71628    
     80000   0.99967426     19.40485       236.60794    
     81000   1.0196577      19.467663      236.4574     
     82000   1.0286414      19.859244      236.28177    
     83000   1.0132691      20.012214      236.32838    
     84000   1.0233553      19.342318      236.32357    
     85000   0.96136778     19.325405      236.1746     
     86000   1.0003504      19.994879      236.10327    
     87000   0.99935796     19.682387      235.92534    
     88000   0.94719337     19.596307      235.88717    
     89000   1.0513884      19.700679      235.64935    
     90000   0.96243756     19.013357      235.57102    
     91000   0.99489249     19.344581      235.43117    
     92000   1.0519186      19.800887      235.28462    
     93000   0.9930132      19.258161      235.15672    
     94000   0.99066044     19.453248      234.92824    
     95000   1.0209603      19.437362      234.88848    
     96000   0.98934721     19.043176      234.81992    
     97000   1.0554286      19.673827      235.11386    
     98000   0.99323289     19.792139      235.03176    
     99000   1.0012433      19.17082       235.03736    
    100000   1.0064939      19.933349      234.74119    
Loop time of 329.475 on 2 procs for 100000 steps with 1000 atoms

Performance: 262235.437 tau/day, 303.513 timesteps/s
102.6% CPU use with 1 MPI tasks x 2 OpenMP threads

MPI task timing breakdown:
Section |  min time  |  avg time  |  max time  |%varavg| %total
---------------------------------------------------------------
Pair    | 0.81152    | 0.81152    | 0.81152    |   0.0 |  0.25
Bond    | 1.8708     | 1.8708     | 1.8708     |   0.0 |  0.57
Neigh   | 322.11     | 322.11     | 322.11     |   0.0 | 97.77
Comm    | 0.028639   | 0.028639   | 0.028639   |   0.0 |  0.01
Output  | 0.22459    | 0.22459    | 0.22459    |   0.0 |  0.07
Modify  | 4.1414     | 4.1414     | 4.1414     |   0.0 |  1.26
Other   |            | 0.2842     |            |       |  0.09

Nlocal:           1000 ave        1000 max        1000 min
Histogram: 1 0 0 0 0 0 0 0 0 0
Nghost:              0 ave           0 max           0 min
Histogram: 1 0 0 0 0 0 0 0 0 0
Neighs:           4839 ave        4839 max        4839 min
Histogram: 1 0 0 0 0 0 0 0 0 0

Total # of neighbors = 4839
Ave neighs/atom = 4.839
Ave special neighs/atom = 1.998
Neighbor list builds = 1056
Dangerous builds = 0

# Replace lj potential, now collapse
pair_style      lj/cut 3

# Cutoff simul when gyration under 5
# Variable created with equal requires v_ + 'name'
fix 3 all halt 1000 v_rog < 7

run 5000000
Generated 0 of 0 mixed pair_coeff terms from geometric mixing rule
Last active /omp style is angle_style cosine/omp
Per MPI rank memory allocation (min/avg/max) = 1860 | 1860 | 1860 Mbytes
   Step          Temp         Enthalpy         c_1      
    100000   1.0064939      19.500688      234.74119    
    101000   1.0606654      19.331655      234.68523    
    102000   1.0033759      19.497756      234.42771    
    103000   1.0162416      18.735425      234.33788    
    104000   0.99982589     18.606355      234.15843    
    105000   1.0397015      19.088524      234.01289    
    106000   0.9751234      19.041509      233.91636    
    107000   1.0276469      19.200086      233.5896     
    108000   0.98085335     18.955187      233.40641    
    109000   1.0140055      19.259254      233.21656    
    110000   1.0222748      18.865427      233.08882    
    111000   1.0119262      18.662485      233.19952    
    112000   1.0040921      19.102405      232.91028    
    113000   0.99483274     19.031592      232.71774    
    114000   1.0485598      19.186229      232.56522    
    115000   0.98592605     19.162893      232.17851    
    116000   0.98264162     18.926003      232.08812    
    117000   1.0017566      18.855941      232.19482    
    118000   1.0045261      18.918425      232.12857    
    119000   1.0186861      18.987026      232.02926    
    120000   0.97878612     18.865176      231.82476    
    121000   0.97923436     18.810466      231.59894    
    122000   0.99069332     19.333527      231.38281    
    123000   1.0088733      19.11492       231.49581    
    124000   1.0229583      19.176381      231.23507    
    125000   0.98988957     19.194791      231.30282    
    126000   1.042875       19.433552      231.08047    
    127000   0.99895867     18.470354      230.91755    
    128000   1.0121432      19.63057       230.85608    
    129000   1.0034455      18.869435      230.67672    
    130000   1.0144316      18.96621       230.448      
    131000   1.0813082      19.150901      230.23437    
    132000   1.011553       19.370476      230.10102    
    133000   1.0025883      19.29509       229.75965    
    134000   0.96141243     18.974359      229.71704    
    135000   0.98210802     19.540309      229.85735    
    136000   1.0377687      19.163012      229.7239     
    137000   0.99187778     18.788007      229.43589    
    138000   1.030522       19.206161      229.4986     
    139000   0.97428093     19.336805      229.20309    
    140000   0.94588697     18.507187      229.0774     
    141000   1.0219706      19.250176      228.86204    
    142000   1.0097062      18.278782      228.91416    
    143000   0.99216718     19.172478      228.56192    
    144000   1.0052679      18.819522      228.32612    
    145000   1.0186106      18.722325      228.17924    
    146000   0.98980595     18.724577      228.26603    
    147000   1.0464431      18.850112      228.02679    
    148000   0.96316183     19.192488      227.89733    
    149000   1.0168735      18.641376      227.73004    
    150000   0.98754343     18.506339      227.58345    
    151000   1.0057325      19.819523      227.44407    
    152000   0.99529747     18.892213      227.27208    
    153000   0.97698637     18.989839      227.3194     
    154000   0.96467846     18.677286      227.3034     
    155000   1.0012561      18.885309      227.07439    
    156000   1.0055701      18.792816      226.74122    
    157000   0.9958824      18.94961       226.63008    
    158000   1.0460552      19.033574      226.41181    
    159000   0.99517386     19.235625      225.99424    
    160000   0.99370234     19.5316        225.71072    
    161000   0.97111534     18.934152      225.62684    
    162000   1.0404719      19.34494       225.45165    
    163000   1.0203453      19.331751      225.26942    
    164000   0.96934576     18.788008      225.19292    
    165000   0.99935902     18.770901      224.98491    
    166000   1.0335507      19.239804      224.67342    
    167000   1.0070594      18.922132      224.46798    
    168000   1.0077051      19.173412      224.59726    
    169000   0.99800849     18.864115      224.37528    
    170000   0.96807945     18.85846       224.30017    
    171000   1.0272619      19.01244       224.15593    
    172000   0.9940964      19.305157      223.94154    
    173000   1.0160797      19.145069      223.73521    
    174000   0.98976712     18.678527      223.80045    
    175000   1.0251358      18.547692      223.59893    
    176000   1.0175408      18.837294      223.34746    
    177000   1.0269762      19.259745      223.04764    
    178000   0.97723812     18.942688      223.19661    
    179000   0.96235929     18.407025      223.02421    
    180000   0.96868069     18.879614      222.82696    
    181000   0.98677268     18.416916      222.80311    
    182000   0.98198905     18.836237      222.98274    
    183000   0.99240717     18.760579      222.91369    
    184000   1.023131       18.825322      222.80294    
    185000   1.0093171      19.481975      222.82688    
    186000   0.98982066     19.258197      222.71652    
    187000   0.99424084     19.164668      222.53795    
    188000   1.0144202      19.232757      222.48771    
    189000   1.0128358      18.876844      222.38289    
    190000   1.0301516      18.988631      222.2714     
    191000   0.99194202     18.82578       222.01078    
    192000   0.99430864     19.189927      221.92158    
    193000   0.99174436     19.127545      221.76647    
    194000   1.0083896      18.862777      221.75727    
    195000   0.99740714     18.955849      221.63881    
    196000   0.9809201      19.120167      221.31033    
    197000   1.0304274      18.726101      221.2416     
    198000   0.98428399     19.382286      220.95469    
    199000   0.97781699     19.099317      220.74518    
    200000   0.96720258     19.534985      220.64316    
    201000   0.98052454     19.354523      220.73712    
    202000   0.99645516     19.274545      220.64028    
    203000   1.0118652      18.765406      220.61697    
    204000   1.0179751      18.989672      220.32185    
    205000   0.95988957     18.98397       220.03822    
    206000   1.0409238      19.346103      220.11463    
    207000   0.99882228     19.483296      219.8774     
    208000   1.0364209      19.176419      219.7535     
    209000   1.0581294      19.397211      219.70436    
    210000   1.0215302      18.813755      219.64961    
    211000   1.020325       19.658026      219.5671     
    212000   1.0651173      18.452429      219.6694     
    213000   0.96093209     18.351192      219.55892    
    214000   0.99698485     18.852679      219.40365    
    215000   0.97866325     18.732097      219.18547    
    216000   1.0035223      18.910605      218.9432     
    217000   1.0346732      19.090547      219.11763    
    218000   0.99104785     19.232477      218.89917    
    219000   0.99591762     19.079829      218.7147     
    220000   0.99241283     18.565907      218.47438    
    221000   1.0082895      18.4894        218.29861    
    222000   1.0195586      18.970967      218.22418    
    223000   1.0186328      18.646484      218.16835    
    224000   0.97809447     19.308898      218.06307    
    225000   1.0216729      18.748503      218.12092    
    226000   1.0449509      19.058254      217.85527    
    227000   0.97267862     18.87548       217.65081    
    228000   0.97830195     18.888649      217.40161    
    229000   0.96599845     18.891215      217.24665    
    230000   1.0199627      18.694494      217.08513    
    231000   0.99284043     19.744287      216.88564    
    232000   0.9734872      19.697222      216.63362    
    233000   0.9835154      19.251205      216.49605    
    234000   0.97382066     19.362893      216.47024    
    235000   0.96072218     18.774386      216.57608    
    236000   1.0024812      18.579378      216.61716    
    237000   1.0121158      18.655574      216.74905    
    238000   1.0225297      19.999063      216.57588    
    239000   0.9497536      19.150989      216.64296    
    240000   1.022835       19.05822       216.61255    
    241000   1.0128698      19.249971      216.64862    
    242000   0.99752516     19.333131      216.49072    
    243000   0.99217157     19.271371      216.47395    
    244000   1.0184114      18.801102      216.37473    
    245000   1.0462878      19.203878      215.98191    
    246000   0.97308753     19.097838      215.73088    
    247000   0.99820614     18.837144      215.6584     
    248000   1.0222799      19.064879      215.57389    
    249000   0.99959715     19.019801      215.19112    
    250000   0.99016305     18.637111      215.30974    
    251000   0.9642872      18.964803      215.15333    
    252000   1.0008979      18.67184       214.8464     
    253000   1.0138244      18.822655      214.87363    
    254000   0.97414465     18.744003      214.94732    
    255000   1.0029116      18.69946       214.78482    
    256000   0.99347963     18.503786      214.78628    
    257000   1.0167939      19.168786      214.80594    
    258000   0.99747216     19.570777      214.74509    
    259000   1.0293026      19.001188      214.49261    
    260000   0.95156382     19.177143      214.43119    
    261000   0.99674623     18.728089      214.4302     
    262000   1.0130698      19.108237      214.39525    
    263000   0.99986404     19.361601      214.17178    
    264000   0.98085741     18.945886      213.98999    
    265000   1.0158226      19.613091      213.85058    
    266000   1.0495655      19.362477      213.84353    
    267000   1.0482855      18.949447      213.77359    
    268000   1.014502       19.09001       213.79464    
    269000   0.97261875     18.458144      213.84471    
    270000   0.98787434     18.145003      213.58805    
    271000   1.01068        18.978659      213.40245    
    272000   1.0299741      19.004573      213.35436    
    273000   0.97559964     19.171043      213.24322    
    274000   1.0466589      19.287884      213.15056    
    275000   0.98263647     19.0487        212.68419    
    276000   1.0106441      18.763789      212.50051    
    277000   0.99163144     19.019962      212.4248     
    278000   0.99201388     19.418546      212.25452    
    279000   0.99485615     19.117385      212.24782    
    280000   1.0088827      19.068394      212.22307    
    281000   0.97366757     18.840092      211.74108    
    282000   1.0227883      18.822439      211.31539    
    283000   0.99058086     19.629582      211.17439    
    284000   1.0027773      18.856951      211.14862    
    285000   1.003089       19.03189       211.17535    
    286000   0.99855115     18.902547      211.10963    
    287000   0.98698585     18.924687      210.93649    
    288000   0.98773749     18.821818      210.68586    
    289000   1.0001971      19.345825      210.5557     
    290000   0.99136544     18.992704      210.52551    
    291000   1.0328887      19.038205      210.47811    
    292000   1.0063507      18.95574       210.29757    
    293000   0.99852002     19.04593       210.09096    
    294000   1.0218328      18.876378      210.07255    
    295000   0.98224199     18.888545      210.02069    
    296000   0.97545287     19.091708      209.94264    
    297000   1.0243281      18.965026      209.90167    
    298000   0.96587745     19.294522      209.66442    
    299000   1.01047        19.019938      209.61285    
    300000   0.98777151     19.462873      209.63939    
    301000   0.9825549      18.100472      209.57841    
    302000   0.95390438     18.736158      209.46796    
    303000   0.99993009     19.618849      209.2849     
    304000   0.99694067     19.23039       209.28234    
    305000   0.97770528     18.706825      209.14423    
    306000   0.9847842      18.613791      209.17823    
    307000   1.0017537      18.698966      209.22916    
    308000   0.96391643     18.80609       208.99655    
    309000   0.98998852     19.309293      208.93195    
    310000   1.0272318      19.017665      209.00249    
    311000   0.95443392     18.616047      208.9612     
    312000   1.0241328      18.985052      208.77253    
    313000   1.017914       19.119433      208.75133    
    314000   0.98484439     19.215284      208.74506    
    315000   0.99858363     19.150236      208.49404    
    316000   0.99453884     19.161969      208.40537    
    317000   1.0248501      19.041206      208.32357    
    318000   0.98359393     19.164392      208.34791    
    319000   1.0336683      19.175453      208.15802    
    320000   1.0339937      19.084776      208.20788    
    321000   0.97227628     19.120185      208.31612    
    322000   1.0307913      19.046653      208.25629    
    323000   1.0049716      18.918394      208.06615    
    324000   1.0480424      19.044553      207.66703    
    325000   0.97398366     19.108155      207.63245    
    326000   0.99941009     18.921902      207.54426    
    327000   1.0049939      19.271893      207.38018    
    328000   0.97407135     19.072401      207.47744    
    329000   1.0519346      19.604138      207.52111    
    330000   0.96635255     19.189381      207.59788    
    331000   1.0345129      19.377059      207.53016    
    332000   1.0240322      19.240266      207.60141    
    333000   1.0521665      18.809412      207.47636    
    334000   0.98624973     19.049228      207.4613     
    335000   0.95957235     18.59842       207.34299    
    336000   0.95106545     18.945837      207.12484    
    337000   1.0170328      19.047921      206.83544    
    338000   0.94832222     19.045408      206.7791     
    339000   1.0070808      18.704836      206.69405    
    340000   0.97872803     18.783578      206.69747    
    341000   1.0082772      19.679394      206.58274    
    342000   1.0042777      19.304917      206.38542    
    343000   0.9966062      18.489313      206.24472    
    344000   0.94819216     19.375217      206.29901    
    345000   0.99082021     19.242068      206.2133     
    346000   1.0127594      19.075358      206.07533    
    347000   1.0197744      18.657791      206.00851    
    348000   1.0226806      19.070832      205.90301    
    349000   0.99542718     19.130549      205.71114    
    350000   1.0181633      19.200396      205.51775    
    351000   0.97478187     18.623891      205.42706    
    352000   0.96939625     18.816838      205.50332    
    353000   0.97848158     18.917923      205.66195    
    354000   1.0063995      18.774968      205.45624    
    355000   1.0094575      18.842672      205.21416    
    356000   1.0211592      18.74662       205.29429    
    357000   0.99037313     18.986424      205.24835    
    358000   0.99726355     19.655913      205.15261    
    359000   0.988181       18.885894      204.92818    
    360000   1.0202071      18.454505      204.87824    
    361000   1.0000958      19.20833       204.8364     
    362000   1.0186451      19.204156      204.64821    
    363000   0.96834741     19.524976      204.48319    
    364000   1.0403535      19.063371      204.36232    
    365000   0.98473533     19.119214      204.29952    
    366000   0.98177243     18.970468      204.07819    
    367000   0.99175674     18.884416      203.81207    
    368000   1.03257        18.947221      203.61528    
    369000   0.97644706     18.652946      203.47732    
    370000   1.0635519      18.73698       203.32164    
    371000   1.0246717      19.194528      203.18804    
    372000   0.96167942     18.879252      203.04878    
    373000   0.98181994     18.742918      203.09404    
    374000   1.0276967      19.291957      203.03614    
    375000   1.0316227      18.974702      202.831      
    376000   1.0331368      19.653336      202.7352     
    377000   1.0279067      18.315088      202.60139    
    378000   1.0140812      19.040586      202.6471     
    379000   0.9988491      19.26675       202.51379    
    380000   1.0168333      18.559257      202.56946    
    381000   1.0173083      18.944928      202.38201    
    382000   0.97584793     18.559645      202.33389    
    383000   1.0017018      19.096679      202.18508    
    384000   1.0030001      19.019826      202.12296    
    385000   1.0381039      18.609071      202.02546    
    386000   1.0258829      18.457322      201.84163    
    387000   1.0133172      18.622722      201.74479    
    388000   1.0244724      18.868331      201.59082    
    389000   0.96135846     18.529033      201.27011    
    390000   0.98889145     19.191505      201.43248    
    391000   1.0326139      18.988219      201.41368    
    392000   1.0489825      19.12696       201.42813    
    393000   1.0011806      18.847823      201.28537    
    394000   1.0139638      19.506348      201.23912    
    395000   0.98553196     18.918734      201.25017    
    396000   0.98203144     18.871078      201.031      
    397000   0.97377348     18.727875      200.62723    
    398000   1.01178        19.236855      200.47732    
    399000   1.0116404      18.732648      200.42915    
    400000   1.0061788      18.614612      200.33446    
    401000   1.0100906      19.163976      200.3749     
    402000   1.0049178      18.288574      200.45076    
    403000   0.96220501     18.779319      200.43536    
    404000   0.97378531     18.594426      200.31814    
    405000   1.0272499      19.156092      200.09029    
    406000   0.98095486     18.581627      199.88573    
    407000   0.99943073     19.364804      199.91218    
    408000   1.00285        18.567141      199.69326    
    409000   1.0388014      19.170855      199.76834    
    410000   1.0696776      18.827179      199.61948    
    411000   1.0098987      19.078048      199.42046    
    412000   0.96296892     18.637951      199.34144    
    413000   0.96879218     18.703965      199.31745    
    414000   1.0139103      18.925715      199.23294    
    415000   0.99130931     19.084371      199.03098    
    416000   0.96793962     18.726012      199.14634    
    417000   0.98013445     19.05868       199.1708     
    418000   0.95304392     19.334186      199.05555    
    419000   1.023165       18.390189      199.12798    
    420000   0.99639633     18.669829      199.03627    
    421000   0.99405067     18.74928       198.77673    
    422000   1.0101416      18.614663      198.90738    
    423000   0.98556195     18.794694      198.58434    
    424000   0.99425979     18.421596      198.3731     
    425000   0.99400538     18.732681      198.11967    
    426000   1.0357463      19.338203      197.91045    
    427000   0.98262346     19.252301      197.92342    
    428000   0.98675234     19.012423      197.68668    
    429000   1.0017862      18.772203      197.68342    
    430000   0.9508518      19.009274      197.64042    
    431000   1.0395894      18.920808      197.41012    
    432000   0.98328612     19.183257      197.30658    
    433000   1.0368625      18.879806      197.21516    
    434000   1.0350684      19.104948      197.19314    
    435000   0.98989071     18.975394      197.24811    
    436000   1.0236077      19.097544      197.28319    
    437000   1.0426079      18.778324      197.08421    
    438000   1.02714        19.106627      196.85881    
    439000   0.9539796      18.638819      197.13435    
    440000   0.99663665     18.766829      197.01072    
    441000   0.98989125     18.704746      196.77224    
    442000   0.99449176     18.686839      196.55418    
    443000   1.0302427      19.834848      196.34802    
    444000   0.96967645     18.377123      196.11707    
    445000   1.0418627      19.335494      196.06981    
    446000   1.0461353      18.848455      195.71357    
    447000   1.0422867      19.0175        195.80344    
    448000   0.99505609     18.815172      195.62836    
    449000   1.0272149      18.867844      195.42687    
    450000   1.0123289      18.757487      195.23127    
    451000   1.006053       18.916495      195.0807     
    452000   1.0111508      18.442337      194.73441    
    453000   0.98144981     18.407369      194.4426     
    454000   0.96835715     19.276037      194.3669     
    455000   1.0167584      18.689919      194.378      
    456000   1.0100252      19.494167      194.28747    
    457000   1.0053962      19.11726       194.25356    
    458000   0.96438521     19.286019      194.11926    
    459000   1.0093423      18.656747      194.24003    
    460000   0.96312197     18.478642      193.95157    
    461000   0.98998816     18.969741      193.81497    
    462000   0.9581682      18.783702      193.66268    
    463000   0.99237949     19.550931      193.65311    
    464000   0.98677848     19.006129      193.7123     
    465000   0.98092587     18.708756      193.64307    
    466000   1.0027049      18.996598      193.54196    
    467000   1.0470898      19.082734      193.30339    
    468000   1.0339674      18.808459      193.21414    
    469000   1.0493151      18.860668      193.13509    
    470000   1.042281       19.333813      192.9801     
    471000   0.95509462     19.290914      193.01366    
    472000   1.0027427      19.134804      192.99793    
    473000   0.9893619      18.960054      192.97929    
    474000   1.0041338      18.658788      192.96651    
    475000   1.0231202      19.13796       192.60492    
    476000   1.0111962      18.998798      192.54739    
    477000   1.0066518      19.277174      192.71838    
    478000   0.99078581     18.707008      192.44729    
    479000   1.0086585      18.296635      192.31871    
    480000   0.96548736     18.140397      192.24507    
    481000   1.0326993      19.167509      192.1005     
    482000   0.99401036     18.909307      192.03404    
    483000   1.065866       19.042516      191.91603    
    484000   0.97242621     19.306142      191.91944    
    485000   0.99460805     18.82358       191.90237    
    486000   1.0119782      18.281926      191.82304    
    487000   1.0143891      19.458757      191.49595    
    488000   0.94921213     19.215316      191.39592    
    489000   1.0052417      18.355081      191.20672    
    490000   1.0389211      19.043887      191.11552    
    491000   0.99295193     18.904577      191.04702    
    492000   1.0120297      18.579045      191.08751    
    493000   0.95862917     18.484975      190.96797    
    494000   0.96279269     18.468827      190.78218    
    495000   0.9694582      18.594124      190.51107    
    496000   0.96238534     18.350267      190.24557    
    497000   1.0093637      18.585618      189.91882    
    498000   1.0052898      18.410072      189.82261    
    499000   1.0092118      18.739345      189.67669    
    500000   0.95544088     18.931938      189.45741    
    501000   1.0258931      18.550375      189.34737    
    502000   0.9793773      19.320731      189.0719     
    503000   0.98947716     18.991296      189.09302    
    504000   1.0038458      18.700869      188.88369    
    505000   1.0352956      19.344895      188.60669    
    506000   1.0154921      18.924494      188.38529    
    507000   0.95186228     18.626731      188.53101    
    508000   1.0067704      18.839923      188.64305    
    509000   0.95534599     18.687744      188.65232    
    510000   0.98610668     18.974293      188.82156    
    511000   1.0147169      18.623826      188.7425     
    512000   0.97432893     18.92861       188.44968    
    513000   1.0007859      19.131559      188.46414    
    514000   1.0251634      18.909184      188.59484    
    515000   0.95201508     18.830216      188.46279    
    516000   0.97356461     18.940598      188.12616    
    517000   1.0041104      18.714347      188.14412    
    518000   1.0163017      19.037596      188.06311    
    519000   1.0226137      18.759731      188.02887    
    520000   0.93633658     18.338713      187.95392    
    521000   1.048756       19.041124      187.97395    
    522000   1.0027976      19.102257      187.95378    
    523000   0.97037792     18.624245      187.95742    
    524000   1.0036602      18.553856      187.73823    
    525000   1.0238972      18.844003      187.782      
    526000   1.0141473      18.76952       187.5895     
    527000   1.0354465      18.547931      187.31232    
    528000   0.97147609     19.12026       187.12891    
    529000   1.0110681      19.203879      187.08321    
    530000   1.0297654      18.202718      187.05655    
    531000   1.0121732      18.820564      186.63761    
    532000   0.9969351      18.352142      186.25049    
    533000   1.0110643      18.843618      186.40535    
    534000   0.98244132     19.050708      186.36947    
    535000   1.0304183      18.988908      186.34041    
    536000   1.0079904      19.12895       186.1407     
    537000   0.98248398     18.790223      186.07757    
    538000   1.0283813      18.840332      186.0429     
    539000   0.98615473     19.257898      185.77359    
    540000   0.96708079     19.209385      185.74719    
    541000   0.96716393     18.763326      185.56525    
    542000   0.9764385      18.93201       185.48071    
    543000   1.0075301      18.857143      185.56984    
    544000   1.0129634      19.063413      185.44028    
    545000   0.99518188     18.748482      185.10393    
    546000   0.98856149     18.641952      184.85581    
    547000   0.99208391     18.989857      184.70751    
    548000   0.9916         18.511299      184.60127    
    549000   1.0126313      18.968902      184.5221     
    550000   1.0322215      19.157551      184.32997    
    551000   0.98851378     18.629751      184.09005    
    552000   0.97098189     19.13602       184.09747    
    553000   0.97195402     19.03255       184.08277    
    554000   1.0283435      18.984303      183.97313    
    555000   0.97243804     18.864857      183.75049    
    556000   0.996137       19.135788      183.5946     
    557000   1.0458539      18.896109      183.38116    
    558000   0.99429901     18.69641       183.18157    
    559000   1.0130599      19.009885      183.08972    
    560000   1.0043952      18.27236       182.92428    
    561000   1.0083854      19.557378      182.89689    
    562000   0.95185872     18.987496      182.97415    
    563000   0.97093433     18.853197      182.88823    
    564000   0.96867214     19.201233      182.80301    
    565000   0.98609507     18.466734      182.68756    
    566000   1.0289931      18.578019      182.70764    
    567000   0.97980932     19.898993      182.77983    
    568000   1.0220674      18.449294      182.7231     
    569000   1.0269783      18.784244      182.77062    
    570000   1.0308528      18.931283      182.71439    
    571000   1.0238196      18.644905      182.58528    
    572000   1.0190066      18.71719       182.40423    
    573000   1.0254269      19.006409      182.12268    
    574000   0.99576208     18.556098      181.77143    
    575000   0.98464934     19.240089      181.41082    
    576000   1.0348975      18.95086       181.32249    
    577000   1.0031259      19.001067      181.14115    
    578000   0.98145572     19.110422      180.97666    
    579000   1.0588929      19.220503      180.80473    
    580000   0.99928088     18.522271      180.39469    
    581000   0.97301701     18.576218      180.58429    
    582000   1.0348143      18.458048      180.44209    
    583000   1.032367       18.925283      180.38004    
    584000   1.001702       18.717266      180.49235    
    585000   1.0050656      18.675025      180.31555    
    586000   0.97063875     18.40457       180.33061    
    587000   1.0039726      19.289576      180.25909    
    588000   0.98365746     18.630158      180.10781    
    589000   0.947523       18.757203      180.10716    
    590000   0.99600262     18.678798      180.0608     
    591000   0.98719183     18.609485      179.95658    
    592000   0.97607839     19.103494      179.86527    
    593000   0.97726241     18.623234      179.48973    
    594000   1.0023905      19.150427      179.45736    
    595000   1.014553       18.586832      179.45397    
    596000   1.0270595      19.073839      179.23767    
    597000   1.0086401      18.575019      179.08176    
    598000   0.99176964     18.852656      178.98248    
    599000   1.0185533      19.144969      178.61379    
    600000   1.0241554      19.157765      178.54331    
    601000   1.0365004      18.306605      178.31693    
    602000   0.98902851     19.049751      178.47954    
    603000   0.96476287     18.951524      178.45544    
    604000   1.0122527      18.871026      178.19799    
    605000   0.97464372     18.905245      178.201      
    606000   1.0235809      18.75279       178.05627    
    607000   1.0552393      18.949327      177.8989     
    608000   0.99648843     19.05719       177.91659    
    609000   1.002318       18.830028      177.97633    
    610000   0.93625308     18.65651       177.69773    
    611000   1.0367325      18.873919      177.82285    
    612000   1.0404127      19.231446      177.82332    
    613000   0.9825046      18.70048       177.85269    
    614000   0.98613253     18.576342      177.84366    
    615000   0.99530652     18.852104      178.00364    
    616000   0.99470461     18.681206      178.04358    
    617000   1.008408       18.708259      178.17939    
    618000   0.95709767     18.104735      178.17937    
    619000   0.98312061     19.543641      178.04152    
    620000   1.0219588      18.736236      177.93258    
    621000   0.98364763     18.800323      178.14176    
    622000   0.97820126     18.673577      178.00851    
    623000   1.0081963      18.596256      177.98856    
    624000   1.0609144      18.857565      177.78416    
    625000   1.0419263      18.749497      177.55051    
    626000   1.0073983      18.949966      177.27839    
    627000   1.0128397      18.956478      177.1418     
    628000   0.99565784     19.124625      176.97392    
    629000   1.0179258      19.238355      176.79151    
    630000   1.0283165      18.80068       176.54455    
    631000   0.98126189     18.406954      176.52638    
    632000   0.97814225     19.02385       176.40323    
    633000   0.992462       18.861731      176.1889     
    634000   0.99502953     18.705171      175.87633    
    635000   1.0327293      18.682714      176.00186    
    636000   1.0348321      18.451366      175.9164     
    637000   1.0087319      18.895832      176.07939    
    638000   0.98240268     18.610019      175.99147    
    639000   0.98553173     17.918397      176.17583    
    640000   1.0121798      18.610628      176.33621    
    641000   0.97426268     18.338815      176.27713    
    642000   1.0013016      18.930605      176.13279    
    643000   1.0339681      19.207291      175.90191    
    644000   0.99025205     18.675307      176.10572    
    645000   1.023854       18.921843      176.26217    
    646000   0.97093514     18.044231      176.01568    
    647000   0.9895708      19.230262      175.72225    
    648000   1.0226493      18.81356       175.57593    
    649000   0.97932045     18.828253      175.51473    
    650000   0.96641165     18.315604      175.25396    
    651000   0.9951919      18.938238      175.08838    
    652000   1.0185064      18.547922      174.87327    
    653000   0.97590119     19.167103      174.95583    
    654000   1.0168553      18.784554      174.89121    
    655000   1.0035672      18.938235      174.59592    
    656000   0.9901193      19.931674      174.41534    
    657000   0.96810047     18.442052      174.07562    
    658000   0.99928548     18.945767      173.82578    
    659000   1.0282597      18.999812      173.86079    
    660000   1.0199051      19.059492      173.93246    
    661000   1.0495164      18.647082      174.01087    
    662000   0.96328612     18.507899      174.13319    
    663000   0.98355148     18.593867      174.07796    
    664000   1.0212079      18.928203      174.13303    
    665000   0.96313261     19.267785      173.90189    
    666000   1.059619       18.561217      173.87958    
    667000   0.99301142     19.150822      173.73083    
    668000   0.97450963     18.216091      173.41614    
    669000   1.0430302      19.198872      173.33676    
    670000   1.0033846      18.605964      173.18785    
    671000   0.99962429     18.57196       173.21923    
    672000   1.0277764      18.48637       173.27375    
    673000   0.97171392     18.434094      172.99761    
    674000   0.94295749     18.653354      173.22973    
    675000   0.95635238     17.857651      173.18865    
    676000   1.0083736      19.049624      172.93978    
    677000   0.94735004     18.617352      172.97459    
    678000   1.0094327      18.328795      172.74215    
    679000   1.0270956      18.937258      172.67077    
    680000   1.0517169      18.806495      172.90643    
    681000   0.97472562     18.270007      172.94352    
    682000   1.0582223      19.425838      172.79889    
    683000   1.0369149      18.904154      172.73618    
    684000   1.007895       18.752521      173.02983    
    685000   1.0176988      18.97699       172.85497    
    686000   1.0202257      18.596833      172.75773    
    687000   1.0124895      18.921574      172.84625    
    688000   0.99271923     18.50697       172.97011    
    689000   1.0015681      18.814831      173.03812    
    690000   1.0258666      18.886647      172.88255    
    691000   0.97825836     19.024535      173.00919    
    692000   1.0346187      19.382558      172.94334    
    693000   1.0577325      18.957759      172.829      
    694000   1.0678694      18.771923      172.56993    
    695000   0.99544581     18.569066      172.66474    
    696000   0.98317248     18.976958      172.85129    
    697000   1.0079605      18.784936      172.6023     
    698000   0.95163237     18.313381      172.34085    
    699000   1.0606841      19.302342      172.10277    
    700000   1.0069193      18.52392       171.98615    
    701000   0.97554373     18.822453      171.84147    
    702000   0.99692644     18.40001       171.72148    
    703000   0.98766343     18.587464      171.61536    
    704000   0.97754092     18.21397       171.63073    
    705000   0.99502548     18.624321      171.70741    
    706000   1.021036       18.736638      171.6884     
    707000   0.99145773     18.706583      171.70326    
    708000   0.95481467     18.485537      171.55417    
    709000   1.0258732      18.48642       171.33381    
    710000   0.9568522      17.865869      171.18382    
    711000   1.0076473      18.711136      170.94187    
    712000   0.99498009     18.760261      170.92867    
    713000   1.0268211      18.668091      170.85149    
    714000   1.0345257      18.459916      170.6777     
    715000   0.98207692     18.737339      170.65165    
    716000   1.0121925      18.593353      170.56828    
    717000   0.99794479     18.811732      170.30936    
    718000   1.0052692      18.562834      170.18321    
    719000   0.99356886     18.503616      170.28303    
    720000   1.015025       18.883979      170.28595    
    721000   0.99681924     18.941448      170.3047     
    722000   0.98816902     18.52786       170.28471    
    723000   0.96783259     18.789142      170.01944    
    724000   0.98822022     18.783327      170.03362    
    725000   1.0554485      18.699689      169.84322    
    726000   0.99562254     18.601018      169.75706    
    727000   0.9874673      18.571865      169.78276    
    728000   0.97758664     18.850691      169.63717    
    729000   0.99554966     18.682451      169.48339    
    730000   0.97439112     18.563793      169.47179    
    731000   0.99657332     18.341455      169.31267    
    732000   1.0144444      18.075795      169.33242    
    733000   1.0040572      18.539204      169.21623    
    734000   0.99539786     18.612219      169.26807    
    735000   1.0220324      18.736336      169.26567    
    736000   1.0254983      19.087875      169.16026    
    737000   0.9819502      18.529161      169.16515    
    738000   1.0213338      18.388515      169.2184     
    739000   1.0268737      18.625525      169.08076    
    740000   1.0563085      18.759889      168.81376    
    741000   0.99249395     18.649883      168.89152    
    742000   0.99078224     18.49047       168.83018    
    743000   0.96695074     18.522446      168.85533    
    744000   1.0033935      18.40414       168.94766    
    745000   1.0308742      18.497449      168.69562    
    746000   1.0164886      18.594334      168.58549    
    747000   0.98045655     18.614457      168.27263    
    748000   1.0154699      18.914928      168.1783     
    749000   1.0179468      18.938592      167.96511    
    750000   1.0091364      18.879699      167.89689    
    751000   0.97074611     18.541185      167.93393    
    752000   1.0131857      18.811231      167.85689    
    753000   0.97580881     18.966151      167.75626    
    754000   1.0314289      18.945334      167.59041    
    755000   1.0372721      18.673063      167.39379    
    756000   0.97822484     18.785306      167.38079    
    757000   1.0141079      18.236847      167.41702    
    758000   0.9791197      18.569764      167.30008    
    759000   1.0383334      17.855271      167.37549    
    760000   1.0206563      19.066356      167.15368    
    761000   0.96958743     18.46936       167.00676    
    762000   0.96115344     18.398597      167.0254     
    763000   0.98852473     18.786637      166.7451     
    764000   1.0028617      18.349267      166.66494    
    765000   1.0100616      18.463141      166.62764    
    766000   1.0017312      18.589123      166.60176    
    767000   0.99878005     18.332191      166.32958    
    768000   0.98827753     18.711255      166.33746    
    769000   1.0337009      18.622146      166.3178     
    770000   0.99870071     18.793657      166.3213     
    771000   1.0139872      18.74978       166.29743    
    772000   1.0584948      18.719885      166.34487    
    773000   1.0006325      19.118421      166.19764    
    774000   1.0049518      18.707432      166.05278    
    775000   0.9548602      18.211845      165.89907    
    776000   1.0047962      18.735333      165.81918    
    777000   0.98977565     18.956503      165.89361    
    778000   0.98644375     18.182374      165.70995    
    779000   1.0464692      18.971194      165.69701    
    780000   1.0452261      19.217624      165.45958    
    781000   0.99374617     18.455678      165.37161    
    782000   0.98335174     18.21734       165.5223     
    783000   0.96134282     18.361559      165.35931    
    784000   0.98113545     18.732649      165.16275    
    785000   1.0010487      18.673568      165.13622    
    786000   1.0475269      18.764285      165.17406    
    787000   0.98978976     19.007415      164.85391    
    788000   1.0075011      18.838201      164.8489     
    789000   1.0359325      19.046148      164.96694    
    790000   0.96583496     18.704078      164.93568    
    791000   1.0181141      18.03402       164.73552    
    792000   0.98376437     18.608538      164.85384    
    793000   0.99988028     18.578246      164.50484    
    794000   0.99283169     17.957885      164.14643    
    795000   0.9909922      18.390991      164.2128     
    796000   1.0032681      18.400109      163.98501    
    797000   1.0303939      18.211794      164.00553    
    798000   0.97497094     18.178891      164.13969    
    799000   1.073886       18.620322      163.81135    
    800000   1.0277645      18.496534      163.95346    
    801000   0.99307274     18.607262      163.77015    
    802000   1.0108921      19.027959      163.49662    
    803000   1.0085966      18.439093      163.3921     
    804000   0.96731913     18.676575      163.24568    
    805000   0.97850117     18.304081      163.11766    
    806000   1.0347473      19.31853       163.05523    
    807000   1.0211035      18.739902      162.98508    
    808000   1.0030599      18.443227      162.71842    
    809000   0.99455838     18.469667      162.47873    
    810000   0.97124794     18.519835      162.61037    
    811000   1.0039611      18.84878       162.51284    
    812000   1.0045106      18.458758      162.54456    
    813000   0.9873777      18.291513      162.2733     
    814000   1.019112       18.681977      162.09878    
    815000   1.0064804      18.460553      162.08433    
    816000   0.93988621     18.544061      162.24121    
    817000   1.0505329      18.887043      162.42464    
    818000   0.98237894     18.415319      162.37571    
    819000   0.99306817     18.259009      162.31548    
    820000   0.98590455     19.301158      162.16383    
    821000   1.0313867      19.494407      162.12903    
    822000   1.0332691      19.142987      162.09682    
    823000   1.0065091      18.654827      162.09304    
    824000   0.97871199     18.468399      161.85761    
    825000   0.98361318     18.424732      161.5436     
    826000   1.0203442      18.438431      161.6324     
    827000   0.96416145     18.275358      161.67632    
    828000   1.0126862      19.068908      161.68985    
    829000   1.0102526      18.278398      161.66116    
    830000   1.0138324      18.528192      161.59876    
    831000   0.99737705     18.230847      161.5714     
    832000   1.0187603      18.974733      161.40897    
    833000   0.99561648     18.76714       161.31656    
    834000   0.95346991     18.522274      161.32318    
    835000   1.0009589      18.632332      161.40164    
    836000   1.0181434      18.52097       161.48362    
    837000   1.0190072      18.494244      161.48449    
    838000   1.0394933      18.766661      161.34773    
    839000   0.98206567     18.379721      161.32373    
    840000   0.98897491     18.548751      161.1102     
    841000   1.0073754      18.302211      161.28514    
    842000   1.0052636      18.390387      161.02472    
    843000   0.99975091     19.117431      160.77688    
    844000   1.0151382      19.122874      160.45937    
    845000   0.95798813     18.169628      160.46091    
    846000   1.0326085      18.485366      160.34357    
    847000   0.97101696     18.174666      160.35783    
    848000   1.0229338      18.728901      160.28551    
    849000   1.0105795      18.712389      160.16526    
    850000   1.030792       19.084073      160.02888    
    851000   1.0296436      18.844284      159.97041    
    852000   1.0246279      18.692717      159.86955    
    853000   0.99456938     18.882029      159.86915    
    854000   1.0166294      19.382706      159.6076     
    855000   0.98151374     18.431624      159.85045    
    856000   1.0416099      18.834208      159.57929    
    857000   1.014234       19.121971      159.68328    
    858000   1.0119388      18.283998      159.7112     
    859000   1.0039383      18.735473      159.68723    
    860000   0.99467994     18.649919      159.66939    
    861000   1.0119894      18.637358      159.76519    
    862000   1.0072252      18.983139      159.58629    
    863000   1.0336194      18.741301      159.87642    
    864000   1.0075059      18.78638       159.85371    
    865000   0.96780517     18.735866      159.8968     
    866000   0.97402402     18.850874      159.79959    
    867000   1.0334912      19.08479       159.85874    
    868000   1.0370526      18.722198      159.90337    
    869000   0.98978931     18.709445      159.6942     
    870000   0.94439739     18.565683      159.29359    
    871000   0.96752123     18.483553      159.13515    
    872000   1.0073653      18.458023      159.0842     
    873000   0.97969076     18.201759      159.11111    
    874000   0.99768241     18.70693       158.98515    
    875000   0.96684066     18.365654      158.95804    
    876000   0.97994427     18.784701      159.05966    
    877000   0.9665578      18.683512      158.93896    
    878000   0.97539816     18.746613      158.9052     
    879000   0.97630097     18.527602      158.73479    
    880000   0.93954357     18.205609      158.76757    
    881000   1.0275043      18.439509      158.61113    
    882000   1.0059628      18.50959       158.53199    
    883000   0.99357283     18.590911      158.35475    
    884000   1.0638245      18.911673      158.10128    
    885000   1.0050659      18.426277      157.85947    
    886000   0.97487759     18.192147      157.59197    
    887000   0.98873234     18.331056      157.4617     
    888000   1.008657       18.310623      157.3358     
    889000   0.98828848     18.995943      157.11639    
    890000   1.0241218      18.093533      157.01115    
    891000   0.98510684     18.528579      157.06006    
    892000   0.97069081     18.511495      157.0402     
    893000   0.99979303     18.296209      156.60261    
    894000   0.99085888     18.212439      156.41802    
    895000   0.98541346     18.38166       155.94075    
    896000   1.0082249      18.689027      155.6757     
    897000   1.0541948      18.082696      155.68776    
    898000   0.97184677     18.333729      155.82146    
    899000   1.0184048      18.504405      155.7084     
    900000   0.98977214     18.247337      155.42784    
    901000   1.0232625      18.712202      155.40898    
    902000   1.036047       18.380849      155.29911    
    903000   0.97655672     18.090198      155.24555    
    904000   1.0255659      18.741555      155.06694    
    905000   0.97519925     18.456351      155.11247    
    906000   0.96111532     18.42948       155.08644    
    907000   1.0454153      18.25482       154.95115    
    908000   1.0302845      18.664266      154.86837    
    909000   1.0339289      18.759744      154.67046    
    910000   1.0478597      18.389391      154.5629     
    911000   0.96531644     18.809819      154.4574     
    912000   1.0006857      18.489641      154.64364    
    913000   1.0245271      18.656097      154.33116    
    914000   1.0069035      19.283547      154.28643    
    915000   1.0508589      18.836946      153.99099    
    916000   0.99838922     18.522993      153.62422    
    917000   0.98476961     18.515295      153.48653    
    918000   1.0225901      18.583775      153.39668    
    919000   1.0018377      18.908736      153.51936    
    920000   1.0102991      18.51105       153.5512     
    921000   1.03217        18.086062      153.30751    
    922000   1.0391473      18.863277      153.33422    
    923000   1.0429659      18.088078      153.23161    
    924000   0.98931683     19.196945      153.24881    
    925000   1.0084908      18.592983      153.10026    
    926000   1.0350727      18.715291      153.13284    
    927000   1.0036864      18.664697      153.20965    
    928000   1.0009821      18.545469      153.3343     
    929000   0.9909512      18.598691      153.45357    
    930000   0.97142419     18.543591      153.18787    
    931000   1.0183309      18.653108      153.06775    
    932000   0.9970466      18.562809      152.98381    
    933000   0.98040833     18.751992      152.92659    
    934000   0.9644246      18.683271      152.84845    
    935000   1.027526       18.40169       152.77004    
    936000   1.064568       18.538107      152.82214    
    937000   1.0252923      18.726766      152.59301    
    938000   1.0151512      19.091587      152.40781    
    939000   1.0165575      18.851368      152.07749    
    940000   0.9551461      18.351602      152.01691    
    941000   0.97633097     18.920398      151.89161    
    942000   0.9689738      18.944382      151.85234    
    943000   0.97470831     18.655301      151.90575    
    944000   0.9874399      18.708103      151.70404    
    945000   1.0323089      18.623401      151.40199    
    946000   1.0151095      18.749942      151.4761     
    947000   1.0459077      18.589451      151.30723    
    948000   1.0405572      18.570949      151.20886    
    949000   0.97775485     18.338061      151.34692    
    950000   1.0409275      18.892881      151.39633    
    951000   1.0078438      18.5611        151.29262    
    952000   1.0178026      18.649815      151.10627    
    953000   0.96899823     18.914609      151.11062    
    954000   1.0030583      18.40972       151.13472    
    955000   0.99992527     18.998799      151.09257    
    956000   1.0140238      18.860106      150.76251    
    957000   1.0150158      18.426734      150.52052    
    958000   1.0277415      18.415556      150.38383    
    959000   1.0782752      18.28152       150.25359    
    960000   1.0029762      18.47759       150.20412    
    961000   0.95115692     18.400034      149.95187    
    962000   1.0459994      18.673952      149.8487     
    963000   1.0032331      18.384155      149.54331    
    964000   0.9553663      18.493161      149.53467    
    965000   1.0257097      18.527826      149.54106    
    966000   0.98475109     18.4695        149.2868     
    967000   1.0313577      18.809098      149.27059    
    968000   1.0300806      18.428007      148.87347    
    969000   1.0553542      18.766512      148.40234    
    970000   1.0018878      18.883175      148.26776    
    971000   1.0298994      18.59535       148.20081    
    972000   1.0020803      18.790812      148.32041    
    973000   0.96815856     18.817719      148.43674    
    974000   1.0300946      18.153164      148.42667    
    975000   0.98685484     18.310042      148.39578    
    976000   1.0560865      18.934352      148.27429    
    977000   0.99995663     18.981628      148.06103    
    978000   1.0024905      18.836473      147.90654    
    979000   0.99405222     18.286241      147.74148    
    980000   0.98708149     18.842905      147.66547    
    981000   1.0107885      18.677515      147.55055    
    982000   1.009056       18.594731      147.72007    
    983000   1.0156054      18.933969      147.59655    
    984000   1.0087127      18.306163      147.47446    
    985000   1.0106996      18.264084      147.17441    
    986000   1.0256895      18.614336      147.09788    
    987000   1.0023912      18.46207       147.13873    
    988000   0.98220137     18.77842       146.57202    
    989000   0.99590766     18.09179       146.44508    
    990000   1.0315681      18.539802      146.40205    
    991000   1.0203399      18.614037      146.3538     
    992000   1.0018987      17.921962      146.33386    
    993000   1.0147519      18.577854      146.48219    
    994000   1.0456356      18.473312      146.24729    
    995000   1.0295028      18.774825      145.97488    
    996000   1.0064505      19.16201       145.97536    
    997000   0.96498908     18.11203       146.1805     
    998000   1.0182194      18.54211       146.0763     
    999000   1.0270303      18.733346      145.97862    
   1000000   1.0047772      18.416902      145.79126    
   1001000   1.0036778      18.426491      145.70817    
   1002000   0.97647857     18.616164      145.46441    
   1003000   0.97233117     18.455122      145.41546    
   1004000   0.99570314     17.799916      145.28325    
   1005000   1.0523355      18.505616      145.21163    
   1006000   0.97513012     18.42565       145.18118    
   1007000   1.0065307      18.659765      145.29502    
   1008000   1.0265669      18.613158      145.1943     
   1009000   0.94518132     17.896718      145.04959    
   1010000   0.98334993     17.888911      145.12098    
   1011000   1.0196053      18.620377      144.95708    
   1012000   1.0171484      18.036265      144.87001    
   1013000   1.0125515      18.621148      144.88205    
   1014000   0.99301436     18.681791      144.84479    
   1015000   0.98721065     18.499329      144.73641    
   1016000   1.0005067      18.174329      144.52835    
   1017000   1.0301241      18.490878      144.55622    
   1018000   0.97338816     17.935258      144.20781    
   1019000   0.99277914     18.69207       143.88442    
   1020000   0.96410922     17.939638      143.69102    
   1021000   0.98032068     18.3121        143.49598    
   1022000   1.0092375      18.554743      143.21398    
   1023000   0.91717372     18.229008      143.12868    
   1024000   1.0505641      18.155001      143.09549    
   1025000   1.0119391      18.488645      142.81078    
   1026000   0.97810758     18.456189      142.81413    
   1027000   0.9987165      18.086452      142.6611     
   1028000   0.99252716     18.133968      142.93682    
   1029000   1.0097128      17.911184      142.89492    
   1030000   0.93045476     18.05079       142.98816    
   1031000   0.9933534      19.378232      143.02005    
   1032000   0.96212589     18.693933      142.92559    
   1033000   1.0252403      18.606262      142.96856    
   1034000   0.99265441     18.922552      142.96304    
   1035000   1.050652       18.335813      142.93402    
   1036000   0.96901717     18.38174       142.79444    
   1037000   1.0433889      17.988358      142.88376    
   1038000   1.0002543      18.662371      142.91052    
   1039000   0.99346366     18.455541      142.75722    
   1040000   0.94921595     18.199817      142.86201    
   1041000   0.969652       18.191159      143.03477    
   1042000   0.98887716     18.601612      143.21509    
   1043000   0.96696508     18.371675      143.28232    
   1044000   1.0395371      18.949544      143.13568    
   1045000   0.95923989     18.423541      143.11565    
   1046000   0.98658602     18.105467      142.87448    
   1047000   0.96194248     17.948573      142.70321    
   1048000   0.99464642     17.92164       142.64624    
   1049000   1.006442       18.862023      142.36614    
   1050000   0.97274663     18.736154      142.35564    
   1051000   1.0245557      18.693572      142.30538    
   1052000   1.0119246      18.4981        142.36875    
   1053000   1.015322       17.92707       142.59457    
   1054000   0.98184789     17.980179      142.64584    
   1055000   1.0045068      18.510326      142.3217     
   1056000   1.0050613      18.584362      142.25232    
   1057000   1.0262275      18.76171       142.07425    
   1058000   0.94997229     18.429984      142.13056    
   1059000   1.0187137      19.034889      141.91593    
   1060000   1.0157414      18.53418       141.70789    
   1061000   0.93216404     18.569192      141.59186    
   1062000   0.99813541     18.775984      141.57413    
   1063000   0.99664746     18.375823      141.52004    
   1064000   0.98584181     18.318811      141.72933    
   1065000   0.99976311     18.235752      141.62191    
   1066000   0.9708932      18.222611      141.68618    
   1067000   1.0088653      18.685992      141.88852    
   1068000   1.0128623      18.195045      141.77909    
   1069000   0.99727282     18.235474      141.47054    
   1070000   0.97572678     18.327905      141.44034    
   1071000   0.98895241     18.451198      141.32677    
   1072000   1.0487026      18.364493      141.06798    
   1073000   0.99592412     18.140974      141.04114    
   1074000   1.0103014      18.56547       141.08849    
   1075000   0.97638044     18.783755      141.09698    
   1076000   1.0026289      18.08252       140.98708    
   1077000   0.94771341     17.883125      140.84584    
   1078000   1.0012355      18.222111      140.77883    
   1079000   0.99179635     18.399216      140.49684    
   1080000   0.9561582      18.601297      140.18184    
   1081000   1.005006       18.473437      140.04632    
   1082000   0.9926575      17.915654      139.80871    
   1083000   1.0440713      18.30117       139.75363    
   1084000   1.0400305      18.97812       139.9143     
   1085000   1.0634322      18.837127      139.92176    
   1086000   1.023758       18.337376      139.83022    
   1087000   0.9820188      18.252333      139.83853    
   1088000   1.0089434      18.705762      139.74964    
   1089000   0.99170522     18.53992       139.64878    
   1090000   1.005852       18.130068      139.49267    
   1091000   1.0260932      18.531216      139.44931    
   1092000   0.99826512     17.676683      139.32053    
   1093000   1.046838       18.343487      139.18743    
   1094000   1.0091777      18.360729      139.09939    
   1095000   0.9869653      18.462993      139.14051    
   1096000   1.0145231      17.999296      139.25524    
   1097000   0.99136593     18.675026      138.94275    
   1098000   0.99532814     18.056607      138.8442     
   1099000   0.99387383     17.909417      138.90589    
   1100000   0.9669618      18.16725       138.96906    
   1101000   1.0106293      18.151986      138.89978    
   1102000   1.0334725      18.014905      138.81631    
   1103000   1.0239828      18.282611      138.86529    
   1104000   1.0421951      18.52507       138.71904    
   1105000   1.0028381      18.471651      138.73219    
   1106000   1.0225091      18.1304        138.67059    
   1107000   0.98256015     18.452249      138.54105    
   1108000   0.98437701     18.323641      138.31085    
   1109000   0.96590816     18.803833      138.14624    
   1110000   0.99244101     18.176874      137.93182    
   1111000   1.0316113      18.587927      137.69836    
   1112000   0.97552505     18.141899      137.66266    
   1113000   0.99957352     18.433349      137.6446     
   1114000   0.98975519     18.07625       137.49596    
   1115000   1.0221179      18.498588      137.37814    
   1116000   1.033683       19.295837      136.99945    
   1117000   0.95155618     18.29948       136.70252    
   1118000   0.9889219      18.380793      136.59881    
   1119000   1.0284493      18.101388      136.52805    
   1120000   1.0205936      18.348982      136.57458    
   1121000   0.9991692      18.352303      136.68124    
   1122000   1.0534002      18.316259      136.52649    
   1123000   0.97827394     18.275723      136.26454    
   1124000   0.96754026     18.119932      136.37347    
   1125000   1.005538       18.573826      136.36548    
   1126000   1.0459458      18.387257      136.33594    
   1127000   1.0145747      17.957456      136.08907    
   1128000   1.0032564      18.6221        135.9219     
   1129000   1.0020828      18.698713      135.91364    
   1130000   1.0330005      18.48336       136.004      
   1131000   0.98376654     18.569669      136.12398    
   1132000   1.0092939      18.671702      136.14115    
   1133000   0.97608577     18.163107      136.03807    
   1134000   1.002658       18.020025      135.99449    
   1135000   0.99773092     18.187062      135.86217    
   1136000   1.0053731      18.648709      135.60967    
   1137000   1.0066875      18.711342      135.26109    
   1138000   0.9372835      18.153554      134.98923    
   1139000   1.0129555      18.062411      134.7811     
   1140000   0.94974492     18.518761      134.77192    
   1141000   1.0408473      18.081762      134.48729    
   1142000   0.97456541     18.29762       134.37507    
   1143000   0.98599366     18.175202      134.42771    
   1144000   1.0104007      18.485127      134.36882    
   1145000   1.002106       18.71095       134.17129    
   1146000   0.95515078     18.181751      134.17376    
   1147000   0.99395016     18.900972      134.27639    
   1148000   1.0128946      18.111456      134.23541    
   1149000   1.0369614      17.904906      134.25604    
   1150000   0.99147699     18.342923      134.38391    
   1151000   0.99833135     18.054436      134.4138     
   1152000   1.0065474      18.080959      134.39505    
   1153000   0.9636037      18.366431      134.33208    
   1154000   1.0208106      17.894866      134.17053    
   1155000   0.96434916     17.702849      134.09185    
   1156000   0.9747551      17.826247      133.60017    
   1157000   1.0069018      18.62064       133.64308    
   1158000   0.98631118     18.146142      133.596      
   1159000   0.97160207     18.245869      133.72965    
   1160000   1.0391892      18.374654      133.55966    
   1161000   0.97327668     17.83951       133.45034    
   1162000   1.0033967      17.897852      133.37832    
   1163000   1.0021826      18.411626      133.24382    
   1164000   0.98612445     18.70485       133.27605    
   1165000   1.0098844      18.569191      133.30787    
   1166000   0.97111098     17.945299      133.09015    
   1167000   0.9788645      17.877405      133.04747    
   1168000   1.0079689      18.57212       133.08964    
   1169000   0.99143011     18.586882      133.09646    
   1170000   1.0169275      18.131955      133.08125    
   1171000   0.98025951     17.920379      133.09953    
   1172000   1.0304847      18.761637      133.09621    
   1173000   1.0024213      18.110987      133.04751    
   1174000   1.0089548      18.221476      132.89694    
   1175000   1.0083459      18.007243      132.66564    
   1176000   1.0298034      18.564734      132.76558    
   1177000   1.040027       18.803155      132.74631    
   1178000   1.0076259      18.266319      132.56813    
   1179000   1.0180734      18.704122      132.47708    
   1180000   1.0120137      17.662291      132.29569    
   1181000   1.0149041      18.225872      132.52665    
   1182000   1.018813       17.779697      132.41453    
   1183000   1.0448346      17.896262      132.27495    
   1184000   0.99586332     18.182922      132.16054    
   1185000   0.98931271     18.405381      131.8041     
   1186000   1.0177406      18.495337      131.66252    
   1187000   0.99399064     18.514413      131.79584    
   1188000   0.97433382     18.427627      131.69436    
   1189000   0.984046       18.26835       131.74956    
   1190000   1.0348337      18.07484       131.95555    
   1191000   1.0409307      18.296757      131.80659    
   1192000   0.96264765     18.107192      131.60715    
   1193000   1.0066774      18.244948      131.62646    
   1194000   0.98204589     18.2912        131.41977    
   1195000   1.0710534      18.032482      131.43336    
   1196000   1.0289234      18.951414      131.57219    
   1197000   1.0096835      18.565002      131.43676    
   1198000   1.0048567      18.947002      131.30264    
   1199000   1.0099927      18.545827      131.25516    
   1200000   0.97618913     18.002774      131.16682    
   1201000   1.0124288      18.523108      131.02895    
   1202000   1.003981       18.588806      130.92686    
   1203000   0.98929574     17.904087      130.81722    
   1204000   0.94315975     18.000628      130.83949    
   1205000   0.99210257     18.22924       130.83068    
   1206000   0.95351127     18.627095      130.76629    
   1207000   1.0171739      18.644265      130.73904    
   1208000   0.94923247     18.747667      130.70075    
   1209000   1.0196527      18.25111       130.67367    
   1210000   0.96768974     18.028763      130.54305    
   1211000   0.99280938     18.723106      130.28491    
   1212000   0.96336919     18.391969      130.17344    
   1213000   1.0163502      18.590295      130.34143    
   1214000   1.0144284      18.508835      130.25689    
   1215000   1.0276312      17.983056      129.95299    
   1216000   0.99199658     18.00948       129.84302    
   1217000   0.96274559     18.111245      129.84867    
   1218000   0.97506608     17.508066      129.8764     
   1219000   1.0002526      18.711972      129.67897    
   1220000   1.0001596      18.478174      129.46743    
   1221000   0.98924618     18.073338      129.3822     
   1222000   1.0230142      18.405565      129.27747    
   1223000   1.0049802      17.901026      129.13448    
   1224000   1.0003123      18.075842      129.00014    
   1225000   0.96209222     18.580862      129.02074    
   1226000   1.009683       18.164919      129.23515    
   1227000   0.99380109     18.030009      129.19565    
   1228000   1.0492912      18.54204       129.04497    
   1229000   1.0317349      18.386412      128.98046    
   1230000   1.0212074      18.037395      128.92033    
   1231000   0.96783239     18.541696      129.16105    
   1232000   1.047661       18.069209      129.29526    
   1233000   0.98312946     18.062661      129.16622    
   1234000   1.0185727      18.249054      128.97336    
   1235000   0.97746027     18.414952      128.7546     
   1236000   1.0264749      18.347422      128.84114    
   1237000   1.0134078      18.201379      128.4685     
   1238000   0.99300641     17.489822      128.45056    
   1239000   0.99875495     18.356689      128.42712    
   1240000   1.0289903      17.693474      128.09945    
   1241000   1.0255613      18.003841      127.91589    
   1242000   0.99173182     18.356456      128.01108    
   1243000   1.0148977      18.213049      127.96626    
   1244000   0.98614682     17.988045      127.79403    
   1245000   1.0170931      18.531444      127.79157    
   1246000   0.99821222     18.57982       127.59672    
   1247000   1.0022937      18.443286      127.27921    
   1248000   1.0344303      17.893378      127.08196    
   1249000   0.99764541     17.989707      127.00448    
   1250000   0.94706685     17.983712      126.80044    
   1251000   0.98909204     17.897197      126.46544    
   1252000   0.97509529     18.567728      126.35355    
   1253000   0.99790994     18.458204      126.46783    
   1254000   0.99380925     18.488866      126.48426    
   1255000   1.010593       18.102509      126.41978    
   1256000   0.98889519     18.30409       126.40439    
   1257000   1.0319253      18.157958      126.50141    
   1258000   0.97772859     18.004105      126.252      
   1259000   1.04824        18.864786      125.96035    
   1260000   0.99228465     18.306838      125.79161    
   1261000   1.0072177      18.230753      125.57826    
   1262000   0.93998125     17.876495      125.5978     
   1263000   1.0062159      17.702749      125.41548    
   1264000   0.98685303     18.339524      125.42628    
[...]
   2673000   0.99620664     17.322711      27.921408    
   2674000   1.0381847      17.353557      27.896124    
   2675000   0.99307917     17.285188      28.012132    
   2676000   0.99828154     17.366338      27.94764     
   2677000   1.0092025      17.184596      27.717409    
   2678000   1.0045078      17.7133        27.701741    
   2679000   1.033541       17.598509      27.646484    
   2680000   0.96904536     16.808493      27.766746    
   2681000   1.0221771      17.054766      27.787388    
   2682000   1.003918       17.811986      27.799094    
   2683000   0.97529988     17.404802      27.912348    
   2684000   1.0032776      17.423358      28.001952    
   2685000   0.99771787     17.216384      27.971654    
   2686000   1.0181791      17.751383      27.942017    
   2687000   1.0381864      17.205345      27.906417    
   2688000   0.9884949      17.060685      27.761215    
   2689000   0.96627007     17.3124        27.572663    
   2690000   1.0219273      17.347371      27.235387    
   2691000   0.95851897     17.352928      26.960565    
   2692000   1.0256225      17.623178      26.873759    
   2693000   0.99863235     16.742706      26.793474    
   2694000   1.0037616      17.396953      26.794371    
   2695000   0.99657457     17.242432      26.708957    
   2696000   1.0223014      17.516065      26.530655    
   2697000   1.0496666      17.451063      26.372648    
   2698000   0.99871216     17.103368      26.348873    
   2699000   0.95025377     17.209635      26.444495    
   2700000   0.97425762     18.040337      26.158796    
   2701000   1.0541899      17.352758      26.049791    
   2702000   0.97759856     17.319082      25.993321    
   2703000   1.01656        17.805458      25.88496     
   2704000   1.0093094      16.740954      25.85612     
   2705000   1.022819       17.259675      25.716371    
   2706000   0.98196345     17.074401      25.739734    
   2707000   0.98681936     17.226038      25.811543    
   2708000   0.99264757     17.406485      25.886048    
   2709000   1.0034436      17.308788      25.922586    
   2710000   1.0237314      17.503109      25.892725    
   2711000   0.99495327     16.77999       25.768724    
   2712000   1.0352054      17.413662      25.909007    
   2713000   0.9688899      16.603873      25.773683    
   2714000   1.0075733      17.370164      25.77594     
   2715000   1.0264598      17.681741      25.548066    
   2716000   1.0241611      17.454431      25.333321    
   2717000   0.98298774     17.182695      25.359256    
   2718000   1.0249571      17.403382      25.244325    
   2719000   1.0273763      17.177091      25.140493    
   2720000   0.94012294     17.508869      25.33758     
   2721000   1.0068071      17.44622       25.351025    
   2722000   1.0137379      17.29368       25.237135    
   2723000   0.96484206     16.991169      25.140439    
   2724000   1.0233447      16.491703      25.17912     
   2725000   0.99358906     17.374438      24.953008    
   2726000   1.0639837      17.317388      24.795006    
   2727000   1.001474       16.735374      24.505221    
   2728000   1.0110814      17.29371       24.512036    
   2729000   0.97377808     17.513443      24.473387    
   2730000   0.9700748      18.183313      24.709675    
   2731000   1.0184063      17.340871      24.679513    
   2732000   0.97827094     17.697161      24.899951    
   2733000   1.0108197      17.47304       24.935214    
   2734000   0.99538119     17.663434      24.730691    
   2735000   1.0196087      17.068246      24.671369    
   2736000   1.0025817      16.978029      24.583599    
   2737000   1.0217119      17.205527      24.477729    
   2738000   1.032578       17.490122      24.463892    
   2739000   0.99308621     16.368962      24.207449    
   2740000   1.0103642      17.468264      24.22736     
   2741000   1.0040606      17.152484      24.265053    
   2742000   0.96026385     17.151739      24.247922    
   2743000   0.97635016     17.278062      24.077676    
   2744000   1.0293747      17.515319      24.062618    
   2745000   1.0258449      17.322486      23.648715    
   2746000   1.0409425      17.817074      23.440308    
   2747000   1.0440258      17.380817      23.24178     
   2748000   0.96000707     17.46012       23.04623     
   2749000   1.0244479      17.139834      23.012108    
   2750000   1.0153914      16.894186      23.05941     
   2751000   0.97224492     16.865097      22.975523    
   2752000   1.0079572      17.50243       22.998631    
   2753000   1.0124702      17.30834       22.96482     
   2754000   0.99047499     17.510248      22.717238    
   2755000   0.94612387     17.363187      22.562205    
   2756000   0.99895909     17.449363      22.540782    
   2757000   1.0411163      17.017496      22.269383    
   2758000   0.9916452      16.803833      22.011163    
   2759000   1.0156457      17.766051      21.964012    
   2760000   1.0908936      17.519064      21.732276    
   2761000   0.96105293     16.511083      21.733951    
   2762000   1.0217494      17.186947      21.598754    
   2763000   0.99995494     16.936912      21.512963    
   2764000   0.9575646      17.750699      21.705048    
   2765000   1.0603628      17.140362      22.030738    
   2766000   1.0487277      17.729887      21.977393    
   2767000   0.98460348     17.365964      21.890687    
   2768000   1.0044601      17.77728       21.731837    
   2769000   1.0116869      17.617941      21.7649      
   2770000   0.94860571     17.835497      21.820204    
   2771000   0.99749729     17.381987      21.595034    
   2772000   0.99040253     17.707586      21.711439    
   2773000   1.0215932      17.294675      21.47482     
   2774000   1.0385869      18.363162      21.454499    
   2775000   0.97379865     16.851029      21.318144    
   2776000   0.97678868     17.266575      21.159933    
   2777000   1.0529261      17.898233      20.926584    
   2778000   1.0152817      17.006074      20.658483    
   2779000   1.0321853      17.255372      20.658642    
   2780000   0.95860993     17.207315      20.850182    
   2781000   1.0230354      16.976393      21.177779    
   2782000   0.98472718     17.321175      21.070899    
   2783000   0.98113714     16.848072      21.095778    
   2784000   1.0187067      17.288166      21.127423    
   2785000   0.98058551     17.370966      20.99697     
   2786000   0.99510406     17.159683      21.048641    
   2787000   0.99185239     17.200504      21.175064    
   2788000   1.0176976      16.701252      20.904313    
   2789000   1.0034938      17.647123      20.89588     
   2790000   1.0371582      17.393987      20.970815    
   2791000   1.0153487      17.641601      20.866505    
   2792000   0.99703616     17.418511      20.874635    
   2793000   0.94892482     17.180773      20.930621    
   2794000   1.0160621      17.272425      20.93737     
   2795000   1.0017021      17.240968      20.681693    
   2796000   0.98906591     16.962075      20.375157    
   2797000   0.99915075     16.703716      20.141471    
   2798000   1.0143722      17.191205      20.262596    
   2799000   0.9883242      17.214871      20.103776    
   2800000   1.0342503      17.352916      20.06632     
   2801000   1.0109925      17.08157       20.198935    
   2802000   1.012475       17.658657      20.060427    
   2803000   0.96409408     17.448844      20.109982    
   2804000   0.98917327     16.87698       19.786965    
   2805000   1.0312594      17.248195      19.795278    
   2806000   1.0185403      17.015586      19.740809    
   2807000   1.0250071      17.25887       19.815518    
   2808000   1.0185606      16.746126      19.681059    
   2809000   1.0135785      17.432594      19.624478    
   2810000   1.0205987      17.481717      19.509025    
   2811000   1.0306117      17.359446      19.47555     
   2812000   0.96187392     16.923967      19.336667    
   2813000   1.0122645      16.960408      19.202202    
   2814000   1.003302       17.160252      19.275456    
   2815000   1.0138107      16.978304      19.004935    
   2816000   0.97251473     16.836552      18.799162    
   2817000   0.99516347     17.026295      18.715757    
   2818000   1.0003052      16.757846      18.46785     
   2819000   0.99663299     16.895353      18.297141    
   2820000   0.99739549     17.020737      18.399188    
   2821000   1.0452546      17.010243      18.227262    
   2822000   1.0081132      17.590741      18.071772    
   2823000   1.0483082      17.573447      18.270447    
   2824000   0.94664003     16.83553       18.351641    
   2825000   1.0444217      17.347645      18.327333    
   2826000   0.9887531      17.038378      18.198125    
   2827000   0.98846441     17.463828      18.249679    
   2828000   0.9669115      17.191254      18.01605     
   2829000   0.99045017     17.23173       17.990874    
   2830000   1.0307768      17.525923      17.86134     
   2831000   1.0157161      16.825         18.143932    
   2832000   1.0518606      16.97676       18.247       
   2833000   1.0078259      16.812151      18.2241      
   2834000   1.0219459      17.065056      18.369483    
   2835000   1.0323618      17.300282      18.448262    
   2836000   0.98503394     17.859202      18.409027    
   2837000   0.94957155     17.033896      18.281811    
   2838000   0.98298013     17.512614      18.26683     
   2839000   1.0151313      17.098355      18.043939    
   2840000   1.033584       17.304812      17.871115    
   2841000   0.98618338     16.998539      17.854534    
   2842000   1.0161606      16.787759      17.656056    
   2843000   0.99665922     16.718184      17.716663    
   2844000   0.96702454     16.566133      17.458372    
   2845000   0.95722282     17.626434      17.285312    
   2846000   1.0071696      17.023594      17.160648    
   2847000   1.0227775      17.351294      17.065168    
   2848000   0.99020281     17.262458      17.123065    
   2849000   1.0028738      17.839786      16.939562    
   2850000   1.0148474      17.535263      17.044059    
   2851000   0.98240579     17.795503      17.053214    
   2852000   0.99759466     17.450347      16.999114    
   2853000   1.0137579      16.689201      16.895836    
   2854000   0.99067412     17.732861      16.894721    
   2855000   0.95410934     17.076507      16.740005    
   2856000   0.99315015     16.65697       16.86762     
   2857000   1.0152595      17.341843      16.795072    
   2858000   0.94884836     16.724712      16.88998     
   2859000   1.0253598      16.371905      16.496375    
   2860000   0.9944806      17.205819      16.557863    
   2861000   0.98038272     17.056703      16.456706    
   2862000   1.0120174      17.435788      16.463442    
   2863000   1.0123016      16.88369       16.559813    
   2864000   0.979139       17.54157       16.261283    
   2865000   0.93924605     17.077848      16.312889    
   2866000   0.99818811     16.942198      16.361576    
   2867000   0.96992614     16.883268      16.318721    
   2868000   0.96240064     17.519393      16.324161    
   2869000   0.99540683     16.805696      16.245326    
   2870000   1.0192844      16.674414      16.175767    
   2871000   0.99357602     17.186393      15.767219    
   2872000   1.02489        17.811776      15.678911    
   2873000   1.0204046      17.280885      15.708602    
   2874000   0.98753364     17.040627      15.833318    
   2875000   1.0427787      17.630258      15.710535    
   2876000   1.0059365      17.740967      15.782126    
   2877000   1.0272011      17.140623      15.913464    
   2878000   0.96370302     17.057694      16.008148    
   2879000   1.0320268      17.386287      16.015974    
   2880000   0.99084389     16.747921      15.772711    
   2881000   1.0300494      17.525005      15.747211    
   2882000   1.0267625      16.412329      15.78866     
   2883000   1.0496402      17.068102      15.75122     
   2884000   1.0477979      17.65171       15.408271    
   2885000   0.99384252     17.426177      15.10212     
   2886000   1.0099482      16.890662      15.144835    
   2887000   0.99919078     16.98356       14.91703     
   2888000   0.99165185     17.688159      14.838889    
   2889000   0.98091661     17.134758      14.794428    
   2890000   0.97887444     16.816059      14.784606    
   2891000   1.0019927      17.482308      14.598035    
   2892000   0.99167697     16.852529      14.569473    
   2893000   0.98780438     17.027165      14.51602     
   2894000   0.98025596     17.469594      14.347824    
   2895000   0.99749294     16.638642      14.3138      
   2896000   0.99079666     16.925965      14.240183    
   2897000   1.0009744      16.710254      14.229909    
   2898000   0.98546237     17.50481       14.124207    
   2899000   1.0287803      16.920798      13.94147     
   2900000   1.0060667      16.279828      13.98153     
   2901000   1.0039664      17.219865      13.847481    
   2902000   1.0022309      17.376439      13.950952    
   2903000   1.0401648      17.328867      13.727634    
   2904000   1.0196745      17.001714      13.718859    
   2905000   1.0177271      16.754626      13.697268    
   2906000   1.0012558      16.745083      13.567091    
   2907000   0.94891031     16.90408       13.390831    
   2908000   1.009458       17.316196      13.194406    
   2909000   0.97480847     16.979717      13.217793    
   2910000   1.0185398      17.856467      13.039617    
   2911000   0.97883978     17.082853      13.034504    
   2912000   1.0082335      17.492995      13.071827    
   2913000   1.0397564      17.413793      13.088836    
   2914000   1.0791848      17.758479      13.086609    
   2915000   1.0316157      17.189839      13.155375    
   2916000   1.0486814      17.261932      13.002091    
   2917000   0.98182128     16.689868      12.766829    
   2918000   1.0044082      17.462611      12.500626    
   2919000   1.0074355      17.291241      12.643633    
   2920000   0.98288182     17.645705      12.50717     
   2921000   0.9997906      17.334743      12.209906    
   2922000   0.97817545     17.388645      11.926782    
   2923000   0.97125216     17.057587      11.994294    
   2924000   0.97755118     17.36387       11.95797     
   2925000   0.99900811     16.407632      12.035687    
   2926000   1.0051401      17.699807      12.202011    
   2927000   1.0007179      17.109623      12.157757    
   2928000   0.95848851     17.742029      12.143761    
   2929000   1.0362706      17.154869      12.154965    
   2930000   1.0224873      17.085149      12.004597    
   2931000   1.0104297      16.92335       11.99758     
   2932000   0.97339506     16.71322       11.931813    
   2933000   0.97722864     17.112604      11.907125    
   2934000   1.0000874      16.728165      11.745982    
   2935000   1.0052789      17.381765      11.612427    
   2936000   0.97964864     17.257457      11.50561     
   2937000   1.0237562      16.549291      11.45853     
   2938000   0.97693292     17.331668      11.451503    
   2939000   0.99336185     17.560464      11.270483    
   2940000   1.0119899      17.393237      11.151495    
   2941000   1.0244985      17.3897        11.247223    
   2942000   0.9515531      16.492554      11.27869     
   2943000   1.008086       17.142872      11.154197    
   2944000   1.0380376      17.345168      10.930071    
   2945000   0.96759664     17.241786      10.831102    
   2946000   0.99294189     16.523435      10.89788     
   2947000   1.0100087      17.154708      10.774719    
   2948000   0.98748051     16.933484      10.704917    
   2949000   0.99021563     16.828218      10.703426    
   2950000   0.96747042     16.65811       10.476885    
   2951000   0.97865531     17.546619      10.427681    
   2952000   1.0252861      17.304419      10.182627    
   2953000   1.0181293      17.329746      10.187872    
   2954000   1.0068322      17.325569      10.117115    
   2955000   1.023323       17.090993      9.9981489    
   2956000   1.0048473      16.718382      9.9315884    
   2957000   1.037676       17.147903      9.8158939    
   2958000   0.97283599     17.363979      9.7621582    
   2959000   1.0242777      17.181052      9.8323714    
   2960000   0.97189869     16.838129      9.6720084    
   2961000   0.98548859     17.293557      9.3808166    
   2962000   1.0198579      16.857638      9.1949554    
   2963000   1.008871       17.425791      9.0299946    
   2964000   0.9725816      17.047023      8.7208453    
   2965000   0.97214901     16.830265      8.6394272    
   2966000   0.99189141     16.993253      8.5529328    
   2967000   1.0114265      16.930535      8.5829336    
   2968000   1.0254515      17.026936      8.6184527    
   2969000   0.98948558     17.32391       8.3774844    
   2970000   0.99092914     16.768263      8.2204886    
   2971000   0.99376083     16.670464      8.0916072    
   2972000   0.99913778     17.836422      8.2061801    
   2973000   1.0003851      17.461293      8.0724447    
   2974000   0.98708879     17.783206      7.8053243    
   2975000   1.0247365      17.309066      7.7060013    
   2976000   1.0174999      17.184454      7.5415987    
   2977000   1.0264185      16.436007      7.3696916    
   2978000   0.98881679     17.193938      7.2353335    
Fix halt condition for fix-id 3 met on step 2979000 with value 6.915946432090048 (src/fix_halt.cpp:237)
   2979000   0.99367193     17.609058      6.9159464    
Loop time of 4459.69 on 2 procs for 2879000 steps with 1000 atoms

Performance: 557763.987 tau/day, 645.560 timesteps/s
121.2% CPU use with 1 MPI tasks x 2 OpenMP threads

MPI task timing breakdown:
Section |  min time  |  avg time  |  max time  |%varavg| %total
---------------------------------------------------------------
Pair    | 704.62     | 704.62     | 704.62     |   0.0 | 15.80
Bond    | 58.953     | 58.953     | 58.953     |   0.0 |  1.32
Neigh   | 3552       | 3552       | 3552       |   0.0 | 79.65
Comm    | 1.0509     | 1.0509     | 1.0509     |   0.0 |  0.02
Output  | 6.667      | 6.667      | 6.667      |   0.0 |  0.15
Modify  | 126.41     | 126.41     | 126.41     |   0.0 |  2.83
Other   |            | 10.01      |            |       |  0.22

Nlocal:           1000 ave        1000 max        1000 min
Histogram: 1 0 0 0 0 0 0 0 0 0
Nghost:              0 ave           0 max           0 min
Histogram: 1 0 0 0 0 0 0 0 0 0
Neighs:         211244 ave      211244 max      211244 min
Histogram: 1 0 0 0 0 0 0 0 0 0

Total # of neighbors = 211244
Ave neighs/atom = 211.244
Ave special neighs/atom = 1.998
Neighbor list builds = 27953
Dangerous builds = 0

# This simulation is done
# Move onto the next one
clear
  using 2 OpenMP thread(s) per MPI task
package omp 0
using multi-threaded neighbor list subroutines
next f
jump SELF

###
# Reference paper:
# K. Kremer and G. S. Grest
# Dynamics of entangled linear polymer melts: A molecular-dynamics simulation
# J Chem Phys 92, 5057 (1990)

##################################
# MIHIR: for branched polymers
# LJ minimum first to expand and explore, then collapse
###

###
# Looping through the various linear polymers to simulate,
# define variables to switch through
# variable f index bb100nuc0bl0bn0d30tot100 bb200nuc0bl0bn0d30tot200 bb300nuc0bl0bn0d30tot300 bb400nuc0bl0bn0d30tot400 bb500nuc0bl0bn0d30tot500 bb600nuc0bl0bn0d30tot600 bb700nuc0bl0bn0d30tot700 bb800nuc0bl0bn0d30tot800 bb900nuc0bl0bn0d30tot900 bb1000nuc0bl0bn0d30tot1000 bb1100nuc0bl0bn0d30tot1100 bb1200nuc0bl0bn0d30tot1200
variable f index bb800nuc0bl0bn0d30tot800 bb900nuc0bl0bn0d30tot900 bb1000nuc0bl0bn0d30tot1000 bb1100nuc0bl0bn0d30tot1100 bb1200nuc0bl0bn0d30tot1200
###


###
# Box and units  (use LJ units and periodic boundaries)
###

units lj
log linear/logs3/$f.log
log linear/logs3/bb1100nuc0bl0bn0d30tot1100.log
