#atom_style bond #no stiffness
atom_style angle #with stiffness

boundary        p p p
###
# Pair interactions require lists of neighbours to be calculated
###

#neighbor 0.3 bin
neighbor 4 bin

neigh_modify every 1 delay 1 check yes
atom_modify sort 0 0
### Generate RESTART file, SPECIAL format, not a .txt file ###
### Useful if simulation crashes ###

restart 1000000 linear/restarts3/$f.restart
restart 1000000 linear/restarts3/bb1100nuc0bl0bn0d30tot1100.restart
#############################



### READ "start" data file ###

read_data linear/$f.dat
read_data linear/bb1100nuc0bl0bn0d30tot1100.dat
Reading data file ...
  orthogonal box = (-1000 -1000 -1000) to (1000 1000 1000)
  1 by 1 by 1 MPI processor grid
  reading atoms ...
  1100 atoms
  scanning bonds ...
  1 = max bonds/atom
  scanning angles ...
  1 = max angles/atom
  reading bonds ...
  1099 bonds
  reading angles ...
  1098 angles
Finding 1-2 1-3 1-4 neighbors ...
  special bond factors lj:    0        0        0       
  special bond factors coul:  0        0        0       
     2 = max # of 1-2 neighbors
     2 = max # of 1-3 neighbors
     4 = max # of 1-4 neighbors
     6 = max # of special neighbors
  special bonds CPU = 0.003 seconds
  read_data CPU = 0.089 seconds

######################

### READ "REstart" data file ###

######################



###
# Define groups (atom type 1 is group 'all')
###
group all type 1
1100 atoms in group all


###
# Dump configs - "simple dumpings"
###

###
# Dump configs + box coords
###

dump   1   all   custom   1000  linear/trjs3/$f.lammpstrj  id  x y z  ix iy iz
dump   1   all   custom   1000  linear/trjs3/bb1100nuc0bl0bn0d30tot1100.lammpstrj  id  x y z  ix iy iz
dump_modify   1   format line "%d %.5f %.5f %.5f %d %d %d"

########################################################################


###################################################################
# Stiffness term
#
# E = K * (1+cos(theta)), K>0
#
angle_style   cosine
#change this coefficient to change stiffness (e.g. 1,5,10)
angle_coeff   1 1.0
###################################################################

###################################################################
# Pair interaction between non-bonded atoms
#
#  Lennard-Jones 12-6 potential with cutoff:
#  potential E=4epsilon[ (sigma/r)^12 - (sigma/r)^6]  for r<r_cut
#
#  1.12246 = 2^(1/6) is the minimum of the potential


pair_style      lj/cut 1.12246152962189
#pair_style      lj/cut 3

#
#  pair_modify shift yes adds a constant to the potential such

#  that E(r_cut)=0. Forces remains unchanged.
#

pair_modify     shift yes

#
#  pair_coeff for lj/cut, specify 4:
#    * atom type interacting with
#    * atom type
#    * epsilon (energy units)
#    * sigma (distance units)
#

pair_coeff      1 1 1.0 1.0
###################################################################

###################################################################
# Pair interaction between non-bonded atoms
#
#  soft potential, for PUSHING apart overlapping atoms
#  potential E=A*(1 + cos(pi*r/r_c))
#
#  1.12246 = 2^(1/6) is the cut-off r_c

#pair_style     soft 1.12246152962189

#
#  pair_coeff for soft, specify 3:
#    * atom type interacting with
#    * atom type
#    * A
#
#

#pair_coeff      1 1 100.0
###################################################################

###################################################################
# Pair interaction between bonded atoms
#
# Fene potential + Lennard Jones 12-6:

#
#  E= - 0.5 K R0^2 ln[ 1- (r/R0)^2]
#     + 4epsilon[ (sigma/r)^12 - (sigma/r)^6] + epsilon
#

bond_style   fene


#
# For style fene, specify:
#   * bond type
#   * K (energy/distance^2)
#   * R0 (distance)
#   * epsilon (energy)  (LJ component)
#   * sigma (distance)  (LJ component)
#


special_bonds fene #<=== I M P O R T A N T (new command)
Finding 1-2 1-3 1-4 neighbors ...
  special bond factors lj:    0        1        1       
  special bond factors coul:  0        1        1       
     2 = max # of 1-2 neighbors
     6 = max # of special neighbors
  special bonds CPU = 0.000 seconds

bond_coeff   1   30   2   1.0   1.0


###################################################

###################################################################
# Pair interaction between bonded atoms
#
# Harmonic potential:
#
#  E= K * (R-R0)^2
#

#bond_style   harmonic

#
# For style harmonic, specify:
#   * bond type
#   * K (energy/distance^2)
#   * R0 (distance)
#

#bond_coeff   1   60.0   1.0
#bond_coeff   2   harmonic 0.1   1.0

###################################################
compute 1 all gyration
variable rog equal c_1
#compute 2 all coord/atom cutoff 1.1

#dump 2 all custom 10000 contact_number.dump id c_2


###
# Set up fixes
###
thermo_style   custom   step  temp enthalpy c_1
fix 1 all nve   ###NVE ensemble

fix 2 all   langevin   1.0 1.0 1.0  158102   ###Langevin integrator Tstart Tstop 1/friction rndseed


##### Sample thermodynamic info  (temperature, energy, pressure, etc.) #####
thermo 1000









############################################################################

###
# set timestep of integrator

timestep 0.01

###
# run integration for a number of steps
###
#run 0
#variable r equal c_1
#if "$r < 63.1" then "quit 1"

# lj potential minimum, cause molecule to explore
run 100000
Generated 0 of 0 mixed pair_coeff terms from geometric mixing rule
Last active /omp style is angle_style cosine/omp
Neighbor list info ...
  update: every = 1 steps, delay = 1 steps, check = yes
  max neighbors/atom: 2000, page size: 100000
  master list distance cutoff = 5.1224615
  ghost atom cutoff = 5.1224615
  binsize = 2.5612308, bins = 781 781 781
  1 neighbor lists, perpetual/occasional/extra = 1 0 0
  (1) pair lj/cut/omp, perpetual
      attributes: half, newton on, omp
      pair build: half/bin/newton/omp
      stencil: half/bin/3d
      bin: standard
WARNING: Communication cutoff 5.12246152962189 is shorter than a bond length based estimate of 5.455. This may lead to errors. (src/comm.cpp:723)
Per MPI rank memory allocation (min/avg/max) = 1860 | 1860 | 1860 Mbytes
   Step          Temp         Enthalpy         c_1      
         0   0              13.414597      275.00021    
      1000   0.94664863     18.6996        274.89738    
      2000   1.0331867      18.582744      274.7223     
      3000   1.0027864      18.680164      274.51508    
      4000   0.97410498     18.669603      274.28747    
      5000   1.0406101      18.450809      274.02662    
      6000   0.97880298     18.586468      273.76124    
      7000   0.9787385      18.464098      273.73227    
      8000   0.99471698     18.869283      273.53275    
      9000   0.97609317     18.91186       273.10753    
     10000   0.98042284     18.847823      272.98944    
     11000   0.96873206     18.970489      272.86312    
     12000   1.0035277      19.071949      272.75882    
     13000   0.99290926     18.56236       272.49425    
     14000   0.99696569     19.088298      272.27116    
     15000   1.0000756      19.145608      272.30141    
     16000   1.0063791      19.678858      272.27154    
     17000   0.99389223     18.518665      272.06096    
     18000   1.0028709      18.935554      271.68615    
     19000   0.99282624     18.869572      271.54468    
     20000   1.0134537      18.950381      271.57173    
     21000   1.0489255      19.010327      271.35718    
     22000   1.011413       18.820407      271.15388    
     23000   1.0234815      18.525105      270.87103    
     24000   1.0250167      19.404365      270.66351    
     25000   1.0151275      19.569182      270.70872    
     26000   0.99774233     18.723582      270.48263    
     27000   1.0358402      19.417122      270.37921    
     28000   0.98212255     18.471206      270.25111    
     29000   0.99880101     19.038795      270.06368    
     30000   1.0291219      18.5501        269.91942    
     31000   0.99062108     19.568811      269.71891    
     32000   0.98329559     19.334443      269.37582    
     33000   0.98706213     19.254744      269.44273    
     34000   0.97348212     19.077093      269.50572    
     35000   1.0376613      19.24837       269.46356    
     36000   1.0168566      19.073719      269.21576    
     37000   0.97537796     19.242194      269.16898    
     38000   1.004839       19.406966      269.13862    
     39000   0.95473719     18.99831       269.22758    
     40000   1.0162437      19.119144      269.26698    
     41000   0.9820816      18.839788      269.18861    
     42000   1.0045216      18.962968      269.11131    
     43000   1.019376       19.000283      269.0749     
     44000   1.0065294      19.309563      268.86101    
     45000   0.98154695     18.607564      268.67906    
     46000   0.99039021     19.436128      268.59877    
     47000   0.99210379     19.27265       268.4542     
     48000   1.0112991      19.15597       268.43397    
     49000   1.0099079      18.638808      268.46896    
     50000   0.99691565     18.794932      268.29412    
     51000   1.0357813      19.370731      268.32998    
     52000   0.9685077      19.172258      268.07059    
     53000   0.98995397     18.838932      268.12535    
     54000   1.0394615      19.154249      267.89245    
     55000   1.0595891      19.229896      267.72827    
     56000   0.9801412      19.209584      267.60233    
     57000   0.99121382     19.365518      267.4329     
     58000   1.0339227      19.095873      267.15883    
     59000   1.0447738      19.766947      266.98383    
     60000   1.0379089      19.509454      266.96368    
     61000   1.0061792      19.081298      266.90201    
     62000   1.0095095      19.221122      266.77784    
     63000   0.9734187      18.741683      266.51613    
     64000   1.0200756      19.326612      266.42635    
     65000   1.0240526      19.236898      266.25868    
     66000   1.0008397      19.284786      266.23437    
     67000   0.98156041     19.272268      265.95464    
     68000   1.0337864      18.964725      265.93364    
     69000   0.96102866     18.684474      265.89611    
     70000   0.98575684     19.609167      265.87915    
     71000   1.0757094      19.598055      266.05826    
     72000   1.0473258      18.971793      265.88617    
     73000   0.95056287     19.248398      265.66971    
     74000   0.99419898     19.050805      265.59634    
     75000   1.0331996      19.950593      265.35048    
     76000   1.0265105      19.409419      265.34272    
     77000   0.95798856     19.080199      265.19094    
     78000   1.002263       19.244499      265.00007    
     79000   1.0234067      19.37956       264.74012    
     80000   0.9757862      19.362906      264.64722    
     81000   0.95425416     18.850684      264.54868    
     82000   1.0148272      19.109912      264.43269    
     83000   1.0206385      19.22218       264.48958    
     84000   1.0012867      19.506932      264.43534    
     85000   1.003708       19.111079      264.33111    
     86000   0.98268844     19.377895      264.34034    
     87000   1.0254652      19.399467      264.06706    
     88000   1.009626       18.802467      263.94196    
     89000   1.0356534      19.426505      263.99411    
     90000   0.98314241     19.040629      264.0154     
     91000   0.99613077     19.192338      263.74572    
     92000   1.0326973      19.834937      263.41967    
     93000   0.9905268      19.619402      263.24857    
     94000   0.9816867      18.977139      263.13923    
     95000   1.0336588      19.274793      262.98358    
     96000   1.012284       19.395906      262.70975    
     97000   1.0098019      19.327443      262.48825    
     98000   0.9807379      19.015226      262.43384    
     99000   0.97050581     19.004491      262.31493    
    100000   0.97637099     18.73097       262.08152    
Loop time of 371.069 on 2 procs for 100000 steps with 1100 atoms

Performance: 232841.054 tau/day, 269.492 timesteps/s
102.6% CPU use with 1 MPI tasks x 2 OpenMP threads

MPI task timing breakdown:
Section |  min time  |  avg time  |  max time  |%varavg| %total
---------------------------------------------------------------
Pair    | 0.92644    | 0.92644    | 0.92644    |   0.0 |  0.25
Bond    | 2.1442     | 2.1442     | 2.1442     |   0.0 |  0.58
Neigh   | 362.75     | 362.75     | 362.75     |   0.0 | 97.76
Comm    | 0.034177   | 0.034177   | 0.034177   |   0.0 |  0.01
Output  | 0.2265     | 0.2265     | 0.2265     |   0.0 |  0.06
Modify  | 4.647      | 4.647      | 4.647      |   0.0 |  1.25
Other   |            | 0.343      |            |       |  0.09

Nlocal:           1100 ave        1100 max        1100 min
Histogram: 1 0 0 0 0 0 0 0 0 0
Nghost:              0 ave           0 max           0 min
Histogram: 1 0 0 0 0 0 0 0 0 0
Neighs:           5255 ave        5255 max        5255 min
Histogram: 1 0 0 0 0 0 0 0 0 0

Total # of neighbors = 5255
Ave neighs/atom = 4.7772727
Ave special neighs/atom = 1.9981818
Neighbor list builds = 1060
Dangerous builds = 0

# Replace lj potential, now collapse
pair_style      lj/cut 3

# Cutoff simul when gyration under 5
# Variable created with equal requires v_ + 'name'
fix 3 all halt 1000 v_rog < 7

run 5000000
Generated 0 of 0 mixed pair_coeff terms from geometric mixing rule
Last active /omp style is angle_style cosine/omp
Per MPI rank memory allocation (min/avg/max) = 1860 | 1860 | 1860 Mbytes
   Step          Temp         Enthalpy         c_1      
    100000   0.97637099     18.325705      262.08152    
    101000   0.96430643     19.075205      261.96504    
    102000   1.0078059      19.023702      262.02696    
    103000   0.99339393     18.842074      261.95413    
    104000   0.9932605      19.090971      261.7743     
    105000   0.9865164      18.959289      261.57113    
    106000   1.0298116      18.779398      261.31724    
    107000   0.99391516     18.799446      261.21081    
    108000   1.0193457      18.977151      260.97048    
    109000   1.0337519      19.151544      260.85255    
    110000   0.99495566     19.071567      260.70897    
    111000   0.98406433     18.856706      260.52938    
    112000   0.99073498     19.543326      260.14621    
    113000   0.9722989      19.415401      259.9915     
    114000   0.98553957     19.117337      260.09778    
    115000   1.041581       18.577921      259.81257    
    116000   1.0023045      18.903954      259.7661     
    117000   1.0346376      19.091003      259.55784    
    118000   0.98714163     18.610591      259.44532    
    119000   1.0109008      19.302003      259.30454    
    120000   1.0190144      18.999273      259.15655    
    121000   0.97787497     19.252872      259.11492    
    122000   0.9978409      19.086011      258.86768    
    123000   1.0992161      19.495037      258.58264    
    124000   0.98687263     19.000369      258.41933    
    125000   1.0313285      18.744742      258.34003    
    126000   1.0052159      19.094749      258.12032    
    127000   0.96915217     18.787968      257.78884    
    128000   1.0051243      19.370724      257.51706    
    129000   1.0104468      19.059392      257.53994    
    130000   0.99107962     18.703973      257.493      
    131000   1.0620837      18.821649      257.25325    
    132000   0.98478247     18.980014      257.07379    
    133000   0.97107639     19.019671      257.14303    
    134000   1.0007102      18.634559      257.11199    
    135000   0.99325569     19.189134      256.92946    
    136000   1.0207326      18.424021      256.68642    
    137000   1.0263656      19.129755      256.5915     
    138000   1.0411989      19.027634      256.62768    
    139000   0.98728058     19.245575      256.36395    
    140000   1.0367712      19.173951      255.78756    
    141000   1.0176355      18.980406      255.78878    
    142000   1.0236471      19.09598       255.70195    
    143000   0.97025512     18.489802      255.62987    
    144000   1.0023806      18.885578      255.52922    
    145000   1.0216636      18.649923      255.33005    
    146000   1.016122       18.926408      255.24708    
    147000   1.0035454      18.835909      255.15716    
    148000   0.99221316     19.297914      255.15002    
    149000   1.0473584      19.575173      254.86452    
    150000   1.0155964      18.698603      254.65937    
    151000   1.0120001      18.574406      254.54397    
    152000   0.98003075     19.14055       254.54784    
    153000   0.98202984     19.047558      254.15415    
    154000   0.99678138     19.46469       253.90528    
    155000   0.97381059     18.744011      253.80612    
    156000   0.9745205      18.959014      253.66721    
    157000   1.0472247      18.901488      253.98142    
    158000   0.99697346     18.774015      253.88677    
    159000   1.0474859      19.107882      253.79159    
    160000   0.97548824     18.82592       253.79865    
    161000   0.99841226     18.43198       253.8327     
    162000   0.97681479     18.689946      253.55525    
    163000   0.98088422     19.435296      253.32617    
    164000   0.99846173     18.93435       253.21137    
    165000   0.98099378     18.287729      253.11378    
    166000   0.96925843     19.05818       252.76277    
    167000   1.0465171      19.150787      252.40109    
    168000   0.99564065     19.452342      252.2499     
    169000   0.9409596      18.41692       252.14689    
    170000   0.99650251     19.067273      251.98726    
    171000   1.0017036      18.558624      251.82236    
    172000   1.0022716      19.105843      251.62761    
    173000   0.95787547     18.742688      251.53699    
    174000   0.98123674     18.764247      251.31705    
    175000   1.0108264      19.118415      251.04563    
    176000   0.98924612     19.000372      251.0531     
    177000   1.0238587      19.017591      250.87761    
    178000   1.0188186      18.914235      250.61344    
    179000   1.0195365      19.013222      250.60084    
    180000   0.97200167     18.797541      250.37843    
    181000   1.0046793      18.903128      250.12604    
    182000   1.0546145      19.487727      250.04444    
    183000   1.0241013      18.847631      249.85351    
    184000   0.99240755     18.85518       249.77648    
    185000   1.0446504      18.509382      249.60699    
    186000   1.0372626      18.643897      249.3395     
    187000   1.0312163      19.229406      249.20285    
    188000   0.99907439     19.226969      248.89005    
    189000   1.009552       19.059045      248.80851    
    190000   1.0389371      19.408924      248.79754    
    191000   0.9744684      18.679391      248.50543    
    192000   0.987709       18.692515      248.34155    
    193000   1.0318571      19.224968      248.17586    
    194000   0.99245104     19.009037      248.03894    
    195000   1.0063096      19.273157      247.77544    
    196000   1.0136066      19.402943      247.6895     
    197000   0.98312239     19.167692      247.5536     
    198000   1.0116674      18.795907      247.34858    
    199000   1.0301184      19.11087       247.33688    
    200000   1.0050105      19.115445      247.25205    
    201000   1.0014009      18.819152      247.11249    
    202000   0.95500809     18.490372      246.9661     
    203000   0.98800104     18.652903      246.55211    
    204000   0.99773513     18.974272      246.64024    
    205000   1.0221989      18.762402      246.66772    
    206000   1.0260985      19.222391      246.42502    
    207000   0.98737273     18.833441      246.29303    
    208000   0.95608326     19.148874      246.25367    
    209000   0.99319788     19.236322      246.13755    
    210000   1.0134994      18.841299      245.8406     
    211000   1.0418621      18.725189      245.6478     
    212000   1.0345866      18.826984      245.74314    
    213000   1.0391489      18.756505      245.64428    
    214000   1.0031592      19.298246      245.46936    
    215000   0.96594116     19.065924      245.22601    
    216000   0.94969204     18.983789      245.11288    
    217000   1.0205765      19.182612      245.09532    
    218000   1.0130269      19.043608      244.95809    
    219000   1.0163228      19.15482       244.86694    
    220000   0.99779049     19.044208      244.7118     
    221000   0.98120147     19.071493      244.70793    
    222000   0.98268607     19.050994      244.65494    
    223000   0.98880446     18.765692      244.69747    
    224000   1.0121546      18.693355      244.50434    
    225000   1.0346673      18.809219      244.37425    
    226000   1.0496441      19.418009      243.94602    
    227000   0.97280611     18.929262      243.63242    
    228000   0.97916696     18.814409      243.45096    
    229000   0.95966235     19.11362       243.4282     
    230000   1.0223039      18.947321      243.40193    
    231000   0.95507058     19.11397       243.19833    
    232000   1.0211608      19.258473      242.90903    
    233000   0.99690118     19.182504      242.76424    
    234000   1.0535082      19.024572      242.55724    
    235000   1.0067026      19.221157      242.44046    
    236000   0.97913227     19.377816      242.37752    
    237000   1.011209       19.126986      242.2259     
    238000   0.9975354      18.953869      242.17328    
    239000   0.98311204     18.84693       242.23774    
    240000   1.0588425      19.167804      242.22711    
    241000   1.0424385      19.277613      241.87495    
    242000   1.0354889      19.254412      241.76316    
    243000   1.0087415      19.161806      241.78782    
    244000   1.0612249      19.3526        241.58447    
    245000   1.0265428      19.137593      241.25178    
    246000   1.0208183      19.001824      241.17858    
    247000   0.97163634     18.967162      241.16543    
    248000   0.98256452     18.573152      241.08157    
    249000   1.0111663      18.77728       241.04188    
    250000   1.0023377      18.662741      241.05427    
    251000   1.0388607      18.787858      241.06059    
    252000   1.0221065      19.252563      241.18557    
    253000   1.0499265      19.460477      240.94502    
    254000   1.0163374      18.881256      240.81723    
    255000   0.99111027     19.433157      240.48867    
    256000   0.98432351     19.185923      240.31322    
    257000   1.0361507      19.37865       240.20091    
    258000   0.95831425     18.861491      239.89018    
    259000   0.9922897      18.692723      239.73335    
    260000   0.96792335     19.057372      239.38067    
    261000   1.0394012      19.392602      239.15936    
    262000   1.0037923      19.175177      239.07286    
    263000   1.0204582      19.323811      239.08285    
    264000   0.97685202     19.392256      238.90592    
    265000   1.0027886      19.046255      238.94407    
    266000   1.0373267      19.622749      238.69555    
    267000   1.0382062      19.130339      238.49838    
    268000   1.0443347      19.363179      238.35117    
    269000   0.98305747     19.107145      238.21685    
    270000   1.0361926      19.293051      237.97689    
    271000   1.025404       19.099619      237.8446     
    272000   0.97842689     19.270622      237.68172    
    273000   0.97189288     19.206465      237.73335    
    274000   0.98162071     18.858225      237.58453    
    275000   0.99866026     19.262827      237.4025     
    276000   1.0509795      19.281405      237.35141    
    277000   1.0132994      19.312675      237.26364    
    278000   0.98775405     18.84134       236.98759    
    279000   0.981067       18.842512      236.90218    
    280000   1.0404114      19.129807      236.89898    
    281000   0.99960397     18.487994      236.92951    
    282000   0.99922276     19.184759      236.82213    
    283000   0.99489195     18.938448      236.82641    
    284000   0.97489723     19.155799      236.76437    
    285000   1.0326765      19.342912      236.66791    
    286000   0.94835319     18.773456      236.43219    
    287000   1.0370447      19.081781      236.27248    
    288000   1.0128963      18.91809       236.18331    
    289000   1.0088967      19.393253      236.15207    
    290000   0.97941071     18.664343      236.04124    
    291000   1.044474       19.119969      235.65782    
    292000   0.98348172     19.151847      235.19248    
    293000   1.0330594      18.811434      235.04667    
    294000   0.95790962     18.733433      235.04881    
    295000   1.0060882      18.698978      234.75189    
    296000   1.0253508      19.730759      234.39388    
    297000   0.98488985     18.824792      234.17683    
    298000   1.0201046      19.207452      233.91256    
    299000   1.0183421      19.301838      234.05164    
    300000   0.974635       19.189095      234.06743    
    301000   0.95428954     18.724371      233.78376    
    302000   0.9922059      19.298996      233.73366    
    303000   0.98880848     18.283985      233.74114    
    304000   0.97806789     18.561153      233.58716    
    305000   1.0082468      19.514757      233.41276    
    306000   1.0082072      19.067017      233.19332    
    307000   0.97402038     18.92937       232.97562    
    308000   1.0292809      18.868803      232.9205     
    309000   1.0069889      18.839112      232.53472    
    310000   1.0311457      18.624631      232.40973    
    311000   1.0568764      19.067343      232.59453    
    312000   0.98638688     19.10336       232.6265     
    313000   0.99562474     19.388146      232.48396    
    314000   0.93402131     18.678048      232.34755    
    315000   1.0378831      18.738081      232.36282    
    316000   1.0739954      19.147348      232.2191     
    317000   0.96345375     18.654523      232.32091    
    318000   0.99340465     18.914113      232.10861    
    319000   0.99992264     19.202514      232.03383    
    320000   1.0063891      19.305543      232.06051    
    321000   0.97231562     18.770682      231.82025    
    322000   0.97708154     19.054636      231.72608    
    323000   1.0111939      19.182478      231.55056    
    324000   0.97749801     19.070159      231.45039    
    325000   1.0071555      19.18843       231.11938    
    326000   0.99044308     18.999176      230.89982    
    327000   1.031454       18.602059      230.7418     
    328000   1.0382255      19.377617      230.76147    
    329000   0.99151471     19.032505      230.88715    
    330000   1.0303104      19.268849      230.94698    
    331000   0.96003469     18.742856      231.17264    
    332000   0.98409173     18.959205      230.91636    
    333000   1.0268502      18.996169      230.89465    
    334000   1.0207383      19.087392      230.74237    
    335000   1.0070305      18.945168      230.51963    
    336000   0.99065877     18.975283      230.41573    
    337000   0.97452513     18.547245      230.32464    
    338000   1.0417569      18.555754      229.92866    
    339000   1.002918       19.165855      229.87402    
    340000   0.97726872     19.118374      229.9285     
    341000   0.99154215     18.756287      229.81479    
    342000   1.0321229      19.504739      229.93264    
    343000   0.97319966     18.946676      229.87563    
    344000   1.0104177      19.07983       229.84389    
    345000   1.0153951      19.062897      229.8194     
    346000   1.012973       19.190533      229.77532    
    347000   0.98879966     19.147622      229.70982    
    348000   1.0055137      18.682564      229.56366    
    349000   1.0038143      18.896736      229.39968    
    350000   0.97587725     18.724666      229.12727    
    351000   0.99779236     18.634493      229.0378     
    352000   0.98683255     19.215335      228.78185    
    353000   0.98443252     19.45764       228.62586    
    354000   0.95949731     18.555564      228.51932    
    355000   0.97931615     18.963927      228.54912    
    356000   0.97214495     18.929088      228.48984    
    357000   0.96728796     18.75221       228.39785    
    358000   1.0031638      18.92406       228.20296    
    359000   1.0011689      19.306843      228.3331     
    360000   0.9499695      18.529669      228.16891    
    361000   1.0209336      18.766384      228.22773    
    362000   0.98555571     19.255947      228.15327    
    363000   0.97876052     19.094044      228.00202    
    364000   1.0467964      19.038627      227.69101    
    365000   0.97866142     18.980762      227.8414     
    366000   1.0382944      19.134281      227.77412    
    367000   0.96887409     19.204962      227.42092    
    368000   1.0239582      18.649956      227.17096    
    369000   1.0092486      19.139796      227.16378    
    370000   1.0192298      19.00045       227.09345    
    371000   1.0431992      19.27611       226.90891    
    372000   1.0347163      18.69454       226.89879    
    373000   1.0107907      18.964459      226.89305    
    374000   0.9760568      18.44727       226.81533    
    375000   0.99193804     19.216689      226.5901     
    376000   0.97509096     19.250377      226.43642    
    377000   1.025449       18.969349      226.31534    
    378000   1.051317       18.921122      226.23641    
    379000   0.97633779     19.168972      226.08329    
    380000   0.98788152     19.279241      226.05095    
    381000   0.94721404     19.236306      225.8798     
    382000   1.0574021      19.052158      225.92509    
    383000   1.0251515      19.176995      226.07237    
    384000   0.97486054     18.852312      226.09596    
    385000   0.98634336     18.726925      225.90935    
    386000   0.99233578     18.969482      225.6271     
    387000   0.9830276      18.592485      225.55025    
    388000   0.99014333     19.093782      225.34642    
    389000   0.99107465     18.481494      225.583      
    390000   0.95114506     18.896066      225.30312    
    391000   1.0037874      19.134087      225.13782    
    392000   0.96805208     18.701357      225.17011    
    393000   1.0001436      19.461006      225.08571    
    394000   0.99460352     19.148133      225.03029    
    395000   1.0054534      18.985673      225.08739    
    396000   1.003701       19.042424      225.13052    
    397000   1.0175721      19.032387      225.05953    
    398000   0.99684465     18.984604      225.10685    
    399000   1.0008089      18.527566      225.00101    
    400000   1.0066816      18.439083      224.83675    
    401000   1.0119287      18.600608      224.68497    
    402000   1.025053       19.420824      224.59645    
    403000   1.0251806      18.640684      224.75768    
    404000   0.99403164     18.733755      224.42573    
    405000   0.98823114     18.8913        224.24732    
    406000   0.97344806     18.84698       224.04538    
    407000   0.99239653     18.352456      223.95115    
    408000   1.023913       18.980472      223.46565    
    409000   1.0029071      18.631194      223.17891    
    410000   0.99482695     19.058895      223.09251    
    411000   0.99348788     18.661622      222.96594    
    412000   0.99557301     19.025676      222.82251    
    413000   1.0250865      19.274629      222.78391    
    414000   0.98421315     19.163168      222.65096    
    415000   0.96863475     18.769016      222.59863    
    416000   0.97846799     18.771983      222.62261    
    417000   0.98431534     18.918882      222.54296    
    418000   1.0088502      18.764156      222.53026    
    419000   0.9745981      18.881185      222.48725    
    420000   0.98502445     18.908603      222.51105    
    421000   0.99067926     18.424645      222.23043    
    422000   1.0583914      19.488588      221.88362    
    423000   1.0311155      19.127538      221.87157    
    424000   0.98260119     18.922927      221.93367    
    425000   1.0031307      19.030919      221.77878    
    426000   1.036202       18.612105      221.80128    
    427000   1.01274        18.417049      221.62192    
    428000   1.0215099      19.203993      221.70883    
    429000   1.0083344      18.73386       221.62503    
    430000   0.96409582     18.570527      221.65117    
    431000   0.99869508     18.770707      221.36383    
    432000   1.0365819      18.990644      221.34932    
    433000   1.0079208      19.125392      221.13257    
    434000   0.9866944      18.621445      220.99774    
    435000   0.97892613     18.927761      220.61715    
    436000   1.0187176      19.337808      220.49507    
    437000   0.99023344     18.560467      220.41783    
    438000   0.99033674     18.605482      220.20366    
    439000   1.0154238      18.566833      220.17629    
    440000   0.95851267     18.603188      220.04279    
    441000   0.99138018     18.780064      219.87766    
    442000   0.99053653     19.037332      219.66189    
    443000   0.99468649     18.425195      219.27341    
    444000   0.99516121     18.839224      219.10182    
    445000   1.0186547      19.01985       219.15087    
    446000   0.98643425     18.754544      219.0229     
    447000   0.98395467     18.954124      218.90643    
    448000   1.0118062      18.926092      218.85871    
    449000   0.96956252     18.485383      218.79627    
    450000   0.95910561     19.124093      218.67111    
    451000   1.0263269      19.464387      218.54573    
    452000   0.97143938     18.955438      218.3959     
    453000   1.0355841      19.307617      218.39397    
    454000   1.0001595      18.864515      218.07986    
    455000   1.029611       19.104367      217.91087    
    456000   1.0194514      18.744195      217.86567    
    457000   1.0215441      18.808372      217.53753    
    458000   1.0331986      18.743259      217.35732    
    459000   1.0184366      18.636009      217.41659    
    460000   1.0027746      18.989418      217.45169    
    461000   0.9851433      18.885374      217.27706    
    462000   0.96165453     18.784094      217.37582    
    463000   1.0180935      18.72672       217.44256    
    464000   0.98239798     18.754801      217.29288    
    465000   1.022068       18.53707       217.21837    
    466000   0.96204679     18.860868      217.06403    
    467000   0.98556219     18.654543      217.12314    
    468000   0.96837658     18.863363      217.11386    
    469000   1.0058712      18.588906      217.10509    
    470000   1.0182194      18.622404      216.75712    
    471000   0.99924163     18.987661      216.58975    
    472000   1.023676       18.748614      216.57331    
    473000   0.9995264      18.955331      216.47263    
    474000   0.97741455     18.548346      216.26669    
    475000   0.97309488     18.74545       216.15527    
    476000   1.0043869      18.760899      216.19624    
    477000   0.99280233     18.43448       216.17533    
    478000   1.047336       18.798236      216.00728    
    479000   0.98609113     18.884564      215.87748    
    480000   1.0018009      19.192249      215.98516    
    481000   1.0282117      18.900988      216.08747    
    482000   0.99948605     19.084054      216.084      
    483000   0.99470023     18.715782      215.70277    
    484000   1.0189792      19.017425      215.90185    
    485000   1.0076005      18.844485      215.69242    
    486000   1.0089124      18.68592       215.61011    
    487000   1.015116       18.974478      215.18888    
    488000   0.97606134     18.851345      214.94946    
    489000   0.97582998     19.039617      214.8712     
    490000   1.0492821      18.963125      214.98099    
    491000   0.94892627     18.32694       214.79921    
    492000   0.97361068     18.17179       214.72698    
    493000   0.94921604     18.395229      214.79772    
    494000   1.0033073      19.052854      214.63852    
    495000   1.0111808      19.265369      214.67367    
    496000   0.96214094     18.902465      214.55391    
    497000   0.98307242     18.891485      214.51608    
    498000   1.0097774      18.65976       214.38296    
    499000   1.0005018      19.134016      214.18867    
    500000   0.97318095     18.17252       213.97563    
    501000   1.0163007      18.658031      213.89791    
    502000   1.0142189      18.993134      213.83689    
    503000   0.98975351     19.261628      213.59918    
    504000   0.98888619     18.502257      213.5964     
    505000   1.0162703      18.323944      213.63028    
    506000   1.0099462      18.620022      213.61719    
    507000   0.99692773     18.719713      213.41215    
    508000   1.0329687      18.815025      213.40782    
    509000   1.0340079      18.714178      213.45358    
    510000   0.99441993     19.107111      213.26659    
    511000   0.98707991     18.956612      213.08614    
    512000   0.9890599      19.266116      213.02914    
    513000   0.99564081     18.616981      212.79604    
    514000   0.96910844     18.950487      212.47838    
    515000   1.0028003      19.031593      212.35723    
    516000   0.9675974      18.688888      212.25608    
    517000   1.0101302      18.949176      212.12832    
    518000   1.0300091      19.313595      212.06608    
    519000   0.99577578     18.5949        212.17413    
    520000   0.98576947     19.086535      212.14612    
    521000   0.96785746     18.706761      212.08404    
    522000   1.001394       18.664268      211.89287    
    523000   0.96619761     18.836155      211.87541    
    524000   1.0135955      18.819407      211.83248    
    525000   1.0062856      18.625382      211.69116    
    526000   0.98276534     18.794976      211.69771    
    527000   1.0065838      18.781458      211.66536    
    528000   1.0034061      19.009189      211.63989    
    529000   1.0096191      18.890837      211.40606    
    530000   1.0019118      18.711794      211.4982     
    531000   0.96552236     18.745717      211.41187    
    532000   0.9919955      18.832722      211.20656    
    533000   1.0212157      18.73495       211.19117    
    534000   1.0041006      19.084548      211.37749    
    535000   1.0168268      18.32853       211.2927     
    536000   0.98452538     18.622861      210.95768    
    537000   1.0304171      19.117751      210.92465    
    538000   1.0012944      18.759975      210.88605    
    539000   0.97825184     18.807672      210.9365     
    540000   1.0040717      18.619221      210.87791    
    541000   0.98124389     18.433688      211.06256    
    542000   1.0100689      19.028756      211.26474    
    543000   0.98229332     18.67045       211.1989     
    544000   1.0148993      18.817633      211.1962     
    545000   1.0071098      18.768992      210.99397    
    546000   1.0080417      18.927069      210.89577    
    547000   0.995369       18.50766       210.86366    
    548000   0.98209958     18.774088      210.83485    
    549000   0.99613776     18.270178      210.55223    
    550000   0.96353769     18.522384      210.3234     
    551000   1.0086677      18.65728       210.31267    
    552000   1.0169102      18.865586      210.29257    
    553000   1.0102457      18.948223      210.21614    
    554000   1.01014        18.749634      210.05213    
    555000   1.0076493      18.676776      209.96816    
    556000   0.97490512     18.855452      209.75971    
    557000   1.0212338      19.215142      209.44435    
    558000   0.98467528     19.343311      209.42064    
    559000   1.0256619      18.774622      209.4121     
    560000   1.0096633      18.928369      209.19444    
    561000   1.0065699      18.453907      209.08431    
    562000   0.97211353     19.022635      209.08262    
    563000   0.99045475     18.738678      208.88425    
    564000   0.99132235     18.704598      208.74504    
    565000   0.98615129     18.731416      208.59988    
    566000   0.97802449     18.676668      208.3707     
    567000   0.99339226     18.699268      208.07175    
    568000   1.020533       19.309285      208.05275    
    569000   0.96447552     19.044417      207.86339    
    570000   1.0459499      18.529713      208.01345    
    571000   1.0106612      18.761153      207.91258    
    572000   1.0073778      18.743866      207.96634    
    573000   1.0024585      18.868619      207.87429    
    574000   0.96968487     18.770813      207.8987     
    575000   0.97397169     18.67334       207.70581    
    576000   1.0203913      18.748627      207.63954    
    577000   0.98138372     18.786519      207.55858    
    578000   0.95392011     19.250899      207.50634    
    579000   1.012201       19.024504      207.32745    
    580000   0.95496443     19.220756      207.3866     
    581000   0.99567782     18.55017       207.45452    
    582000   1.0223966      18.629523      207.37581    
    583000   0.9858941      18.831168      207.28541    
    584000   0.97863585     18.618385      207.25472    
    585000   1.0043029      18.598645      207.18803    
    586000   0.99770968     18.615149      207.22179    
    587000   1.0439221      18.673298      207.11347    
    588000   0.993889       19.096205      207.12577    
    589000   0.99505231     18.507271      207.26945    
    590000   0.97721295     19.053444      207.17828    
    591000   1.0445928      18.486949      207.02579    
    592000   1.0291323      18.32696       206.85296    
    593000   0.99462555     18.827281      206.59595    
    594000   1.0082084      18.786625      206.59938    
    595000   1.0027536      18.794634      206.65798    
    596000   0.97581453     18.472411      206.4249     
    597000   0.98272595     18.387242      206.26185    
    598000   0.9992953      19.211606      206.03465    
    599000   1.0073707      18.457739      205.75697    
    600000   0.96037757     19.005566      205.6669     
    601000   1.0025904      18.89304       205.61168    
    602000   1.044103       19.024469      205.50003    
    603000   0.98649411     18.862995      205.51864    
    604000   1.032953       18.547372      205.48739    
    605000   0.97884584     18.83148       205.38625    
    606000   1.0347141      18.915743      205.52209    
    607000   0.99936045     19.036245      205.51319    
    608000   1.0074358      18.832716      205.38072    
    609000   1.0398484      18.611826      205.48485    
    610000   0.96492365     18.212816      205.69181    
    611000   1.0482242      18.578617      205.54939    
    612000   1.0150736      18.502524      205.5649     
    613000   1.0764851      19.22621       205.61935    
    614000   1.0150249      18.591956      205.81434    
    615000   0.99126742     18.565509      206.02772    
    616000   1.0056505      18.680983      205.95076    
    617000   0.97331688     18.989453      205.85382    
    618000   1.0205341      18.25121       205.8855     
    619000   0.99287873     18.832023      206.01074    
    620000   1.0098775      18.318367      205.9329     
    621000   1.0046041      18.889882      205.9811     
    622000   0.98032696     18.595422      206.03996    
    623000   0.99990864     18.650478      205.81044    
    624000   0.99892337     18.820653      205.78609    
    625000   0.98192318     19.048594      206.07243    
    626000   0.98868639     18.849175      206.17902    
    627000   1.0089485      18.826921      206.22168    
    628000   1.0286725      18.867655      206.17635    
    629000   0.96752837     19.059142      206.04431    
    630000   0.96851254     18.478969      206.01752    
    631000   1.0075468      18.737385      205.84512    
    632000   1.0272855      18.109993      205.85859    
    633000   0.97953941     19.201645      205.80634    
    634000   1.0364476      18.934383      205.83026    
    635000   1.0147124      18.390554      205.90728    
    636000   1.0511337      18.947474      205.63501    
    637000   0.9947082      18.771259      205.76961    
    638000   0.97699317     18.594702      205.8077     
    639000   0.9761586      18.700625      205.72856    
    640000   1.0245703      18.523967      205.58208    
    641000   0.98022372     18.290131      205.35486    
    642000   0.98685799     18.808105      205.28748    
    643000   1.0045655      18.381818      205.21078    
    644000   1.0262922      19.548161      205.00678    
    645000   1.0254298      18.600506      204.73345    
    646000   1.0030906      19.223891      204.55251    
    647000   0.97609672     18.770364      204.62945    
    648000   0.9885111      18.393812      204.65284    
    649000   1.0184371      18.927491      204.23986    
    650000   0.99516962     18.168028      204.13905    
    651000   0.99126783     18.888961      204.00175    
    652000   0.99382356     18.731816      204.0559     
    653000   1.0322581      18.684586      203.95329    
    654000   0.97522774     18.508804      203.66482    
    655000   1.0048076      18.315949      203.57332    
    656000   0.99419832     18.743843      203.40965    
    657000   1.0193791      18.488434      203.28403    
    658000   0.97456673     18.993309      203.00275    
    659000   1.0073521      18.817366      202.7266     
    660000   0.9784804      18.723251      202.5907     
    661000   1.0247217      18.503055      202.35367    
    662000   1.0151222      18.662593      202.37561    
    663000   1.0494564      18.805609      202.3261     
    664000   0.97023978     18.767378      202.22598    
    665000   1.0127795      18.898935      202.21591    
    666000   0.98821447     19.146655      202.01482    
    667000   1.0090837      18.82705       202.00653    
    668000   0.9510576      18.912941      201.75029    
    669000   0.9969949      18.947525      201.69846    
    670000   1.0072686      18.629114      201.48463    
    671000   0.96081422     18.556758      201.36119    
    672000   0.99978853     18.983026      201.30066    
    673000   0.98465989     18.68345       201.19186    
    674000   0.99412191     19.006289      200.85896    
    675000   1.0213771      18.600996      200.84838    
    676000   0.94276586     18.55808       200.78142    
    677000   0.96607074     19.159668      200.81512    
    678000   0.97539794     18.604293      200.82564    
    679000   0.9971036      18.84094       200.69954    
    680000   1.0455053      19.165399      200.49873    
    681000   1.0080362      18.697435      200.23956    
    682000   0.99350042     18.994716      200.10786    
    683000   0.97837073     18.83053       199.98411    
    684000   1.0229124      19.216177      200.09512    
    685000   1.0243131      18.657049      200.05462    
    686000   0.98981854     18.670673      199.86766    
    687000   0.97157533     18.309899      199.83115    
    688000   0.96811765     18.847466      199.70507    
    689000   1.0094255      18.686633      199.60792    
    690000   0.99907403     18.749996      199.6151     
    691000   0.99674469     19.000055      199.55825    
    692000   1.0193328      19.313024      199.48361    
    693000   1.0138829      18.440814      199.42934    
    694000   0.98960325     18.682626      199.3392     
    695000   0.97978698     18.303824      199.1641     
    696000   0.99894314     19.314065      199.09616    
    697000   0.99535748     18.547208      198.66178    
    698000   0.95097194     18.374344      198.74163    
    699000   0.99660234     18.667192      198.59951    
    700000   1.0682564      18.971976      198.38945    
    701000   0.96891985     18.658251      198.24633    
    702000   1.0149451      18.777267      198.23366    
    703000   1.0156612      18.361108      197.97915    
    704000   0.99792311     18.625856      197.91807    
    705000   0.96151408     19.040181      198.01895    
    706000   0.99395569     18.300887      197.84275    
    707000   1.0017396      18.512673      197.72884    
    708000   0.96520367     18.691871      197.43291    
    709000   0.97636458     18.791467      197.2751     
    710000   0.96350179     18.318479      197.27727    
    711000   1.0456016      18.8958        196.98915    
    712000   1.0107101      18.563702      196.9562     
    713000   1.0176009      18.926695      196.83267    
    714000   0.96795012     19.264955      196.56108    
    715000   0.99264841     18.838614      196.41348    
    716000   0.96845204     18.578394      196.48935    
    717000   1.0251302      19.106168      196.06915    
    718000   0.98756838     18.734451      195.85012    
    719000   0.98693366     18.586624      195.64616    
    720000   1.0437677      18.319896      195.54691    
    721000   1.0016293      18.927707      195.2514     
    722000   0.98456243     18.611265      195.15856    
    723000   0.96823793     18.664805      195.05113    
    724000   1.0311429      19.169932      195.02557    
    725000   1.0303634      18.614309      195.06624    
    726000   0.98356889     19.052608      195.0238     
    727000   1.014208       19.024855      194.91846    
    728000   0.98192606     18.673813      194.69568    
    729000   0.98845248     18.749472      194.71352    
    730000   1.0022144      18.571331      194.71876    
    731000   0.93513155     18.783514      194.7613     
    732000   0.99729996     18.73413       194.72887    
    733000   0.97024225     18.550982      194.83821    
    734000   1.0136387      19.071554      194.71889    
    735000   0.97598086     18.841439      194.62804    
    736000   0.97025237     18.685078      194.69902    
    737000   0.95828551     18.842161      194.62518    
    738000   1.0283053      18.45458       194.5985     
    739000   0.97228676     18.799807      194.47407    
    740000   0.99125297     18.217295      194.47357    
    741000   1.0478037      18.577026      194.46318    
    742000   1.0470158      18.650879      194.47689    
    743000   0.96807883     18.628424      194.29873    
    744000   1.0020698      18.502544      194.14238    
    745000   1.0637276      18.661606      194.05442    
    746000   1.0012341      18.857661      194.11393    
    747000   0.99608526     18.449929      194.10279    
    748000   1.0037568      18.591552      194.1634     
    749000   0.98872943     18.998037      194.06606    
    750000   0.99341233     18.686308      194.048      
    751000   0.9288066      18.65337       194.04298    
    752000   0.9976067      18.429661      194.00385    
    753000   1.0188347      18.567403      193.86204    
    754000   1.0505282      18.62683       193.84754    
    755000   0.9749465      18.368541      193.68575    
    756000   1.0220396      18.898033      193.78849    
    757000   1.0237008      18.822353      193.8078     
    758000   0.99928024     18.878169      193.64353    
    759000   0.99870946     19.137613      193.58367    
    760000   1.026912       18.529074      193.65034    
    761000   0.98397439     19.077387      193.48234    
    762000   0.97072367     18.572218      193.33901    
    763000   0.93689309     17.853611      193.22066    
    764000   0.99996328     18.389191      192.90727    
    765000   1.0074695      18.412147      192.93393    
    766000   0.99328802     18.840311      192.93382    
    767000   0.9911734      18.354674      192.67944    
    768000   0.95943326     18.523749      192.49909    
    769000   0.96220478     18.551947      192.39798    
    770000   1.0092288      18.828804      192.38825    
    771000   1.0214423      19.0476        192.51458    
    772000   0.9927889      19.031681      192.58103    
    773000   0.97757342     19.501366      192.4312     
    774000   0.99328124     18.560324      192.20045    
    775000   1.0183241      18.986743      192.33141    
    776000   1.0377609      18.735631      192.34404    
    777000   0.94605894     18.927753      192.31099    
    778000   1.0104812      18.883142      192.31578    
    779000   0.9458111      18.535588      192.32804    
    780000   1.0290007      18.816195      192.20664    
    781000   0.98964433     18.616826      191.92438    
    782000   1.0380086      19.179883      191.87243    
    783000   1.0091339      18.223764      191.86178    
    784000   0.98108441     18.645824      191.79213    
    785000   0.98708644     18.765775      191.55618    
    786000   0.93893753     18.286089      191.46639    
    787000   0.98476773     18.616618      191.498      
    788000   0.9807053      18.668436      191.60995    
    789000   1.0291113      18.698241      191.33898    
    790000   0.98227368     18.446719      191.15809    
    791000   1.0163477      18.536933      191.16556    
    792000   0.9714735      19.012448      190.88543    
    793000   1.0070006      18.662779      190.93184    
    794000   0.97847217     18.977491      190.96491    
    795000   1.0113319      18.634342      191.14013    
    796000   0.98165783     18.498942      191.00406    
    797000   1.0001532      18.746403      190.88542    
    798000   0.98127946     18.375461      190.76382    
    799000   1.0325739      18.993547      190.67616    
    800000   1.0060426      18.574727      190.70838    
    801000   0.99045372     18.359936      190.70945    
    802000   1.001289       18.8739        190.55786    
    803000   1.0182629      18.801361      190.41536    
    804000   0.99326239     18.701373      190.27568    
    805000   1.0196024      18.55852       190.33066    
    806000   1.0298115      18.882211      190.35878    
    807000   0.99346104     18.904003      190.37929    
    808000   0.98674703     18.225848      190.46575    
    809000   1.0189343      18.74416       190.29421    
    810000   0.98169206     18.600839      190.10839    
    811000   0.99495875     18.515499      189.84992    
    812000   1.0225457      18.67359       189.83001    
    813000   1.0260287      18.74572       189.64612    
    814000   0.98844643     18.390453      189.45516    
    815000   0.97915965     18.11742       189.4961     
    816000   0.99321469     18.934279      189.45825    
    817000   0.96446607     18.981467      189.35324    
    818000   0.9921997      18.826675      189.23836    
    819000   1.0072419      18.872575      189.13753    
    820000   0.98042944     18.193584      189.05391    
    821000   1.0036357      18.907111      189.09589    
    822000   0.99216151     18.366553      189.03112    
    823000   1.0137706      18.610382      189.0012     
    824000   1.0123961      18.549574      189.0378     
    825000   0.98459884     18.19517       188.97737    
    826000   0.985965       18.602002      188.81592    
    827000   0.99786652     18.544895      188.82377    
    828000   1.0015739      18.432308      188.75089    
    829000   0.9905257      18.664599      188.68835    
    830000   0.99830049     18.467922      188.42733    
    831000   0.98479414     18.828166      188.12339    
    832000   1.0115428      18.890808      188.17694    
    833000   0.9994509      18.303341      187.95276    
    834000   1.0129087      19.155671      187.89729    
    835000   1.0448206      18.963199      187.8504     
    836000   1.0127622      18.764097      187.54459    
    837000   0.97356664     18.618606      187.22514    
    838000   1.0256284      18.399565      187.15845    
    839000   1.0161262      19.053099      187.00321    
    840000   1.021357       18.32822       186.63859    
    841000   1.0349318      18.484981      186.44686    
    842000   0.9904428      18.137321      186.2905     
    843000   0.96755958     18.752402      186.16422    
    844000   0.96013531     18.557247      186.13271    
    845000   1.0107088      19.145376      186.40778    
    846000   0.98481087     18.77666       186.53992    
    847000   0.95361345     18.596807      186.68075    
    848000   0.97059417     18.605329      186.51834    
    849000   0.95932499     18.272411      186.35875    
    850000   1.0441005      19.004343      186.38949    
    851000   0.99418899     19.195337      186.35244    
    852000   0.99237208     18.12319       186.30728    
    853000   1.0010594      18.493466      186.09782    
    854000   0.97921179     18.832453      185.906      
    855000   0.98571039     18.079158      185.81416    
    856000   1.0121413      18.594485      185.91101    
    857000   1.0000217      18.582668      185.64964    
    858000   0.96378827     18.944011      185.69733    
    859000   1.0024756      18.602081      185.64796    
    860000   0.99445418     18.607305      185.5729     
    861000   1.0065484      18.600938      185.19945    
    862000   0.98725681     18.926801      185.083      
    863000   0.97432137     18.630472      185.08899    
    864000   0.98456763     18.1998        184.92576    
    865000   1.0295129      18.636522      184.9732     
    866000   1.0397328      18.885885      184.50165    
    867000   1.0362082      18.929444      184.59917    
    868000   0.99647283     18.213765      184.45799    
    869000   0.99673734     19.072832      184.22008    
    870000   1.0093119      18.514465      183.98023    
    871000   0.99636367     18.68919       183.8688     
    872000   0.95830751     18.340849      183.76509    
    873000   0.94760096     18.511203      183.82612    
    874000   0.98484177     18.377343      183.66141    
    875000   1.0103422      19.086387      183.53653    
    876000   1.0407507      18.85593       183.63796    
    877000   0.9962947      18.848375      183.66979    
    878000   1.0140505      19.077498      183.64101    
    879000   0.99824511     18.332872      183.58708    
    880000   1.0162081      18.869527      183.72747    
    881000   0.97899987     18.001159      183.70556    
    882000   1.0143184      18.840434      183.60931    
    883000   1.0183347      18.776292      183.65845    
    884000   0.90925825     18.344286      183.61533    
    885000   1.001663       18.787524      183.67546    
    886000   1.0282228      18.356513      183.47676    
    887000   0.9562348      19.258831      183.49866    
    888000   1.0179984      18.987493      183.40014    
    889000   0.95435176     18.746537      183.32471    
    890000   0.98841267     19.120596      183.10411    
    891000   1.0270792      18.962644      182.91752    
    892000   0.988582       19.124248      183.048      
    893000   0.97591262     18.848077      183.00363    
    894000   1.0164338      19.001803      182.92051    
    895000   0.99855391     19.001745      182.81954    
    896000   0.99030421     18.681795      182.76139    
    897000   0.98864189     18.677918      182.49599    
    898000   1.0090837      18.810568      182.3506     
    899000   0.97715078     18.604225      182.13367    
    900000   1.0362567      18.462065      182.07798    
    901000   1.0337863      18.497364      182.03125    
    902000   0.99643199     18.363625      182.19947    
    903000   1.0376341      18.863046      182.33786    
    904000   0.99273506     18.198458      182.24291    
    905000   0.99614894     18.50294       182.26181    
    906000   0.99277307     18.501977      182.29885    
    907000   0.98499356     18.140971      182.20472    
    908000   0.99245114     18.533555      182.14108    
    909000   1.0090699      18.461962      182.16984    
    910000   0.92833126     18.598967      181.97122    
    911000   0.99290767     18.496035      181.54328    
    912000   1.0024821      18.37936       181.55774    
    913000   1.0361755      19.182563      181.38943    
    914000   1.0380317      18.750033      181.09282    
    915000   0.97669722     18.401925      180.94675    
    916000   0.99974778     18.920242      180.60295    
    917000   0.96733442     18.06726       180.59555    
    918000   0.94651804     18.418156      180.7403     
    919000   1.0026201      18.764335      180.74966    
    920000   1.0299659      18.669461      181.05651    
    921000   0.99100268     18.980488      180.86305    
    922000   1.0144542      18.800839      180.60482    
    923000   0.99518266     18.584143      180.66384    
    924000   0.98872313     18.528526      180.79631    
    925000   1.0372017      18.927366      180.66197    
    926000   1.0281036      19.011152      180.78255    
    927000   0.97999945     18.899832      180.69855    
    928000   0.9932338      18.669142      180.60245    
    929000   1.013077       19.17694       180.38509    
    930000   0.98241428     18.492661      180.5523     
    931000   1.0152917      19.11138       180.45577    
    932000   0.97954829     18.173722      180.49193    
    933000   0.96064111     18.796753      180.4776     
    934000   1.0045209      18.518979      180.40879    
    935000   1.0402407      18.602572      180.28255    
    936000   0.95467247     19.109215      180.14182    
    937000   1.0285098      18.549665      180.36472    
    938000   1.0130125      19.04229       180.25693    
    939000   1.0285895      18.756755      179.98849    
    940000   1.0202802      19.006971      179.99193    
    941000   0.99361061     18.514705      180.10557    
    942000   1.0250744      18.876857      180.17884    
    943000   1.0039058      19.139144      180.09196    
    944000   1.0076131      18.867344      180.04759    
    945000   0.99984922     18.575807      179.97936    
    946000   0.97781273     18.385992      179.77484    
    947000   0.98654965     18.935838      179.72752    
    948000   0.97729557     18.675215      179.75648    
    949000   1.0026752      18.348931      179.70717    
    950000   0.98271069     18.170905      179.68608    
    951000   0.97897335     18.62101       179.42299    
    952000   0.9851688      18.393141      179.25859    
    953000   1.0134554      18.477912      179.18331    
    954000   1.0120953      18.081828      179.01297    
    955000   0.98289395     18.547583      178.60471    
    956000   1.0590596      19.369663      178.55427    
    957000   0.98126523     18.898017      178.6151     
    958000   1.0288338      18.310275      178.58698    
    959000   0.9517558      18.656327      178.3785     
    960000   1.0597247      18.654227      178.17554    
    961000   1.0154673      18.589243      178.13152    
    962000   1.0198247      19.009909      178.15627    
    963000   0.98435037     18.647736      178.04027    
    964000   1.0433669      18.704082      177.88869    
    965000   1.0410463      19.194476      177.77869    
    966000   1.0470838      18.803389      177.74547    
    967000   0.98903049     18.36413       177.60145    
    968000   0.97110683     18.893801      177.42241    
    969000   0.95127599     18.364423      177.26524    
    970000   0.99909224     18.385809      176.95418    
    971000   0.99409427     18.66115       177.05255    
    972000   0.96277158     18.979365      177.22452    
    973000   0.97719607     18.710883      177.37481    
    974000   1.0099857      18.443011      177.23438    
    975000   1.0383996      18.617575      177.05921    
    976000   0.97746544     18.452284      177.1849     
    977000   1.0145883      18.781481      177.07256    
    978000   0.96502827     18.821025      177.13329    
    979000   0.97854494     18.86674       176.82529    
    980000   0.97929769     18.541014      176.87209    
    981000   1.0101874      18.926335      176.98703    
    982000   1.0085235      18.211926      176.85479    
    983000   0.98274666     18.318315      176.74393    
    984000   0.99249484     18.737437      176.78229    
    985000   1.0322201      18.318415      176.50704    
    986000   0.99377897     18.852283      176.57623    
    987000   0.99193903     18.02184       176.56802    
    988000   0.95568544     18.39426       176.61742    
    989000   0.96448371     18.969179      176.53199    
    990000   0.98644634     18.009968      176.45126    
    991000   1.0094849      18.409615      176.34305    
    992000   0.96564112     18.575414      176.44198    
    993000   0.97390014     18.57048       176.21514    
    994000   1.0430169      19.483162      176.35419    
    995000   1.0066326      18.486687      176.28426    
    996000   1.0225158      18.227968      176.14222    
    997000   1.026431       18.796465      176.19786    
    998000   0.99931698     18.661396      176.1607     
    999000   0.99434955     18.076917      175.87383    
   1000000   1.0443552      19.364818      175.78893    
   1001000   0.98780819     18.805295      175.84849    
   1002000   0.9449527      18.406493      175.54786    
   1003000   0.98989603     18.365551      175.26344    
   1004000   1.0391381      18.957523      174.87542    
   1005000   1.0050006      18.641712      174.84819    
   1006000   1.0389011      18.563687      174.86054    
   1007000   1.0339212      19.212953      175.02597    
   1008000   1.0388186      18.877916      174.92593    
   1009000   1.0140067      18.220031      174.74526    
   1010000   1.046607       18.722386      174.42724    
   1011000   1.0156642      19.031159      174.45842    
   1012000   1.0078742      18.527396      174.48148    
   1013000   1.0377535      18.568812      174.26856    
   1014000   1.0014014      18.402846      173.96748    
   1015000   1.0370685      18.700723      173.58262    
   1016000   1.0397922      19.157631      173.63695    
   1017000   1.007863       18.47857       173.54013    
   1018000   0.98435792     18.619924      173.229      
   1019000   0.99882274     18.870641      173.30528    
   1020000   1.0186295      18.408197      173.34007    
   1021000   0.96872154     18.464311      173.24305    
   1022000   0.97236714     18.422998      172.99547    
   1023000   1.0121711      19.470032      172.88396    
   1024000   1.0213151      18.681187      173.01939    
   1025000   0.96364065     18.610632      173.04599    
   1026000   1.0071932      18.871897      173.18744    
   1027000   0.98693506     18.416485      172.95551    
   1028000   0.98938701     18.268049      172.982      
   1029000   1.006675       18.90282       172.77173    
   1030000   1.0179145      18.640193      172.50959    
   1031000   0.9994667      18.668202      172.40187    
   1032000   0.99447443     18.523284      172.35243    
   1033000   0.9281249      18.353771      172.32192    
   1034000   0.97211475     18.214421      172.22188    
   1035000   1.0481985      18.860836      171.9365     
   1036000   0.9891715      18.527941      171.84233    
   1037000   0.96415614     19.128556      171.67003    
   1038000   1.0099161      18.160669      171.65449    
   1039000   1.0006532      18.721454      171.84049    
   1040000   1.0144842      18.904111      171.93917    
   1041000   1.0184754      18.386086      171.93343    
   1042000   1.013891       18.733888      172.08423    
   1043000   0.99733733     18.670736      171.92003    
   1044000   1.0037076      18.664406      171.66788    
   1045000   1.0334674      18.479699      171.46196    
   1046000   1.020997       18.36085       171.42092    
   1047000   0.98246842     18.768364      171.27904    
   1048000   1.0466297      18.890639      170.94567    
   1049000   0.96541645     18.271833      170.84449    
   1050000   1.032413       18.641198      170.61149    
   1051000   0.99795582     18.605239      170.63803    
   1052000   1.0112835      18.399785      170.48434    
   1053000   0.97581813     18.642865      170.49221    
   1054000   0.98230295     18.68831       170.34853    
   1055000   0.98799692     18.595745      170.3195     
   1056000   1.0487658      18.748992      170.14272    
   1057000   1.0217233      18.610626      170.12039    
   1058000   0.96979085     17.856123      170.00164    
   1059000   1.0092806      18.839649      170.01032    
   1060000   0.99484829     17.95347       170.02129    
   1061000   1.0110779      18.906579      169.82339    
   1062000   1.00392        18.527975      169.79368    
   1063000   1.0195756      18.474548      169.92116    
   1064000   0.99027356     18.649564      170.00621    
   1065000   0.98276302     18.077531      169.88691    
   1066000   1.0060745      19.184823      169.94198    
   1067000   0.99632512     18.9746        169.87802    
   1068000   0.99163866     18.921847      169.95659    
   1069000   1.021465       18.561038      169.82794    
   1070000   0.98755186     18.739117      169.66051    
   1071000   0.99106896     18.713175      169.70087    
   1072000   1.0330947      18.729608      169.66307    
   1073000   1.0059484      18.7656        169.63625    
   1074000   1.0047249      18.627065      169.46536    
   1075000   0.99084292     18.785445      169.42287    
   1076000   1.0134689      18.759604      169.21709    
   1077000   1.0096909      18.327011      169.23411    
   1078000   1.0361699      18.502292      169.08308    
   1079000   1.021305       18.122784      169.0029     
   1080000   1.0148869      18.439034      168.83789    
   1081000   0.98618269     18.792986      168.66494    
   1082000   0.96975855     19.148088      168.59783    
   1083000   1.0388396      18.570205      168.6069     
   1084000   0.97288493     18.625221      168.33018    
   1085000   0.99569931     19.016152      168.1254     
   1086000   1.002959       18.739925      168.03299    
   1087000   1.0178103      18.79142       168.16854    
   1088000   1.0460517      18.662686      168.31303    
   1089000   1.0023435      18.326265      168.27443    
   1090000   1.0156699      18.80888       168.35697    
   1091000   0.98677376     18.556232      168.21472    
   1092000   0.952188       18.515503      168.15602    
   1093000   0.9453951      18.671883      168.023      
   1094000   1.0063504      18.379211      168.08598    
   1095000   1.0130672      18.782359      168.19622    
   1096000   1.0172678      18.549753      168.273      
   1097000   0.99929064     17.976693      168.25277    
   1098000   1.0308202      18.040371      168.33975    
   1099000   1.0040045      18.810587      168.32606    
   1100000   0.96501567     18.972972      168.2189     
   1101000   0.98132925     18.698574      167.97785    
   1102000   1.0122952      18.916374      167.79615    
   1103000   0.9772089      18.140104      167.64875    
   1104000   0.97130271     18.841028      167.75782    
   1105000   0.97935474     18.165971      167.73924    
   1106000   1.0303621      17.919555      167.49262    
   1107000   0.96998931     18.623725      167.49317    
   1108000   0.98394206     19.067066      167.60135    
   1109000   0.98621082     18.083763      167.6073     
   1110000   0.94317011     17.734862      167.55337    
   1111000   0.99226473     18.877358      167.38649    
   1112000   1.0387024      19.350395      167.31102    
   1113000   0.96857199     18.21458       167.10531    
   1114000   0.93934996     18.347135      167.14921    
   1115000   1.0142902      18.427355      167.06394    
   1116000   1.0113079      18.244616      167.22227    
   1117000   0.99356635     18.425474      167.09864    
   1118000   1.0050746      18.380916      166.97012    
   1119000   1.0004669      18.471933      166.7436     
   1120000   1.0232629      18.669752      166.85303    
   1121000   0.95858294     18.352038      166.66547    
   1122000   1.0571617      18.818795      166.68131    
   1123000   0.9770354      18.072357      166.69723    
   1124000   1.0070576      19.038131      166.72999    
   1125000   0.99781163     18.075228      166.83216    
   1126000   0.98223495     18.595772      166.94597    
   1127000   0.9734447      18.396887      166.78504    
   1128000   1.0333597      18.237314      166.85804    
   1129000   1.0239806      18.310188      166.87564    
   1130000   1.0138038      18.48352       166.95469    
   1131000   1.0025786      18.339623      167.03202    
   1132000   0.96151327     18.260948      167.08338    
   1133000   1.0108045      18.707012      167.27986    
   1134000   1.0041284      18.676708      167.30535    
   1135000   1.0229974      18.454747      167.23889    
   1136000   1.0366899      18.598924      167.31645    
   1137000   0.96863535     18.77515       167.29144    
   1138000   1.0226829      18.514049      167.17277    
   1139000   1.0156751      18.547702      167.19458    
   1140000   1.0074391      18.337502      167.16262    
   1141000   0.99769134     18.075593      167.14984    
   1142000   0.98464937     18.104933      167.18262    
   1143000   0.93951702     18.639836      167.07897    
   1144000   1.0110923      18.187688      167.15296    
   1145000   1.0722358      18.386529      167.16771    
   1146000   0.9941659      18.715757      166.80335    
   1147000   1.0153093      18.678584      166.89465    
   1148000   0.94836924     18.485334      166.83883    
   1149000   1.0110094      18.596441      166.93731    
   1150000   1.0344517      18.330778      167.03684    
   1151000   0.98634129     17.873331      167.07391    
   1152000   0.99619966     19.075267      167.0226     
   1153000   0.97824957     18.071718      167.0488     
   1154000   1.0014608      17.985439      167.21325    
   1155000   0.99557115     18.508475      166.97039    
   1156000   0.97244494     18.315109      166.58877    
   1157000   1.0144556      18.211264      166.83939    
   1158000   0.99243553     18.727276      166.67889    
   1159000   0.99973211     18.228322      166.74448    
   1160000   1.0105029      18.706656      166.70227    
   1161000   1.0035624      18.198755      166.73986    
   1162000   0.93604325     18.445959      166.6175     
   1163000   0.99937823     18.817825      166.60789    
   1164000   0.95287512     18.149137      166.56731    
   1165000   1.0062765      18.641832      166.34249    
   1166000   1.00333        18.633753      166.32171    
   1167000   1.0457325      18.583031      166.1338     
   1168000   0.9803503      18.52562       165.97815    
   1169000   1.0041479      18.423067      166.02278    
   1170000   1.0337017      18.219323      165.8435     
   1171000   0.95636945     18.212312      165.65093    
   1172000   1.000658       18.294375      165.74933    
   1173000   0.97760734     18.459708      165.75915    
   1174000   0.99655445     18.320675      165.6995     
   1175000   1.026418       17.854244      165.78749    
   1176000   0.96006853     18.148934      165.52709    
   1177000   1.0359044      18.780825      165.47357    
   1178000   0.98448193     18.19773       165.25595    
   1179000   0.95911834     17.912865      165.04801    
   1180000   0.98523391     18.614358      164.89757    
   1181000   1.0334998      18.468677      164.73993    
   1182000   1.0061589      18.654287      164.69696    
   1183000   1.0191754      18.099102      164.40766    
   1184000   1.024499       18.414355      164.38572    
   1185000   0.99615254     18.091065      164.19089    
   1186000   0.98270451     18.780221      164.23487    
   1187000   1.0425442      18.789794      164.0041     
   1188000   0.96613163     17.851898      164.161      
   1189000   1.0306931      18.795634      164.14797    
   1190000   0.99990176     18.234848      164.01044    
   1191000   0.99666827     18.462553      164.2023     
   1192000   1.0152482      18.573063      164.31393    
   1193000   0.99588457     18.391797      164.33211    
   1194000   0.97642008     18.38051       164.36726    
   1195000   0.98987789     18.142174      164.25541    
   1196000   1.0115597      18.510015      163.97413    
   1197000   0.95730107     18.303567      163.85858    
   1198000   1.0345984      18.388656      163.84693    
   1199000   0.97292983     17.768232      164.03015    
   1200000   0.96776542     17.971706      164.22646    
   1201000   0.96687176     17.666151      164.11072    
   1202000   1.0087377      18.140254      163.83317    
   1203000   1.0003898      18.173454      163.85958    
   1204000   0.98887121     18.206298      163.63709    
   1205000   0.98828206     17.842902      163.62794    
   1206000   0.9533765      18.282934      163.69901    
   1207000   0.99248921     18.472677      163.53364    
   1208000   0.97851693     18.147039      163.42905    
   1209000   0.9786228      18.548012      163.53666    
   1210000   1.0184625      18.451196      163.34061    
   1211000   1.0196067      17.778112      163.19773    
   1212000   1.0199633      18.354699      163.21168    
   1213000   0.9979619      18.742682      163.25412    
   1214000   0.99980688     18.077934      163.23929    
   1215000   1.0006365      18.215098      163.27394    
   1216000   0.98767076     18.253116      163.37371    
   1217000   1.0014454      18.225222      163.31449    
   1218000   1.0051244      18.322754      163.07349    
   1219000   1.0437208      18.668993      163.10162    
   1220000   1.0238771      18.390254      163.21759    
   1221000   0.99498774     18.558144      162.92761    
   1222000   1.0062742      18.383945      162.90229    
   1223000   0.99346726     18.698881      162.82357    
   1224000   0.99661211     18.706858      162.57793    
   1225000   0.98388907     18.589197      162.50775    
   1226000   1.025553       18.589046      162.35203    
   1227000   1.0100461      18.675513      162.40626    
   1228000   0.96590734     17.785641      162.58788    
   1229000   1.0088752      19.066327      162.3655     
   1230000   1.033513       18.1608        162.14595    
   1231000   0.97751028     18.084095      161.90976    
   1232000   1.0103392      18.264461      161.78464    
   1233000   0.98162257     18.141642      161.66459    
   1234000   0.9939366      18.427095      161.6316     
   1235000   1.0468853      18.628433      161.60458    
   1236000   1.0214466      18.320556      161.47377    
   1237000   1.0033794      18.1133        161.33073    
   1238000   0.99760874     18.849116      161.35781    
   1239000   1.0347727      18.564731      161.26736    
   1240000   1.0346097      18.153876      161.22727    
   1241000   1.0311216      18.590333      161.11635    
   1242000   1.0383191      17.872928      160.93044    
   1243000   1.0352417      17.9063        160.69215    
   1244000   0.97015708     18.124685      160.6503     
   1245000   0.97777544     18.216131      160.65949    
   1246000   1.0067433      18.511417      160.66342    
   1247000   1.0348377      18.127996      160.60489    
   1248000   0.99504635     18.502817      160.67756    
   1249000   1.0237763      18.874398      160.82222    
   1250000   1.0323134      18.277709      160.64097    
   1251000   1.0272038      18.333108      160.65171    
   1252000   0.98610474     17.832083      160.63457    
   1253000   1.0134675      18.379263      160.48413    
   1254000   1.0107177      18.185512      160.41883    
   1255000   1.025402       18.522594      160.50515    
   1256000   0.96073239     18.312656      160.31202    
   1257000   1.0461529      18.768357      160.23047    
   1258000   1.0020758      18.374436      160.13087    
   1259000   0.99733249     18.254054      160.0089     
   1260000   0.99837428     18.220397      159.88349    
   1261000   1.0010315      17.742787      159.74373    
   1262000   1.0008836      18.31348       159.69974    
   1263000   1.0147474      18.881944      159.55134    
   1264000   1.0022106      18.133131      159.55033    
[...]
   3246000   0.98433352     16.925573      26.28676     
   3247000   0.98752915     16.778734      26.408671    
   3248000   1.0283811      16.987798      26.123173    
   3249000   1.0034501      17.614781      26.141857    
   3250000   1.0324329      16.997606      26.033887    
   3251000   1.0530271      17.285851      25.918103    
   3252000   1.0274486      16.77239       25.950413    
   3253000   0.99190946     17.457264      25.843995    
   3254000   1.0014313      16.850081      25.815971    
   3255000   0.98334555     16.725708      25.637605    
   3256000   0.98436867     16.649336      25.656009    
   3257000   1.0177575      17.211036      25.736708    
   3258000   0.98272716     17.412602      25.563473    
   3259000   0.97959487     17.19337       25.678172    
   3260000   1.001385       16.803972      25.673856    
   3261000   0.98629296     17.502646      25.481232    
   3262000   0.99358082     17.473814      25.282081    
   3263000   0.99615464     17.276585      25.09797     
   3264000   1.0026646      17.136577      24.947026    
   3265000   1.0401224      16.833375      24.994973    
   3266000   1.0068475      16.500151      25.037695    
   3267000   0.99873202     17.172542      24.875425    
   3268000   1.0103111      17.645009      24.713314    
   3269000   0.99173278     17.393806      24.664223    
   3270000   0.94866331     16.996573      24.492804    
   3271000   1.015008       16.940981      24.501261    
   3272000   0.96450148     17.203536      24.457566    
   3273000   0.93585071     17.297934      24.377887    
   3274000   0.99856405     17.432559      24.478078    
   3275000   0.9478859      17.426723      24.412677    
   3276000   1.021575       17.661276      24.545928    
   3277000   0.99411784     16.756653      24.482448    
   3278000   0.97860698     17.15274       24.311178    
   3279000   1.0402034      17.363971      24.044881    
   3280000   0.98696629     17.068075      23.883046    
   3281000   0.95243792     16.669459      23.834405    
   3282000   1.0658765      17.545104      23.694314    
   3283000   1.0455658      16.756682      23.615014    
   3284000   1.0125481      16.717662      23.545315    
   3285000   0.98543895     17.207959      23.477227    
   3286000   0.99143252     17.447225      23.563128    
   3287000   0.99536325     17.232981      23.541931    
   3288000   0.97768197     17.184524      23.364435    
   3289000   0.96925692     17.122793      23.332547    
   3290000   0.98720107     17.320693      23.420236    
   3291000   1.035808       17.670441      23.425959    
   3292000   1.0079429      17.307815      23.551393    
   3293000   1.0286214      17.325291      23.624106    
   3294000   0.99082202     16.636546      23.308171    
   3295000   0.99604442     17.354124      23.242146    
   3296000   0.99737662     17.380269      23.180166    
   3297000   0.96962525     17.598879      22.999955    
   3298000   0.99945393     17.61179       22.975845    
   3299000   1.0408613      17.407813      22.949174    
   3300000   0.99889092     17.531888      22.790796    
   3301000   1.0014803      17.106637      22.622395    
   3302000   0.98042877     17.404429      22.811974    
   3303000   1.024272       16.785093      22.757255    
   3304000   1.0023912      16.921877      22.924684    
   3305000   0.92470715     17.156153      22.924403    
   3306000   0.95997917     16.511269      22.744798    
   3307000   0.99246885     17.258196      22.708378    
   3308000   1.0267764      17.420837      22.62465     
   3309000   0.9877762      16.843817      22.877051    
   3310000   0.99075348     16.766764      22.844336    
   3311000   0.9855565      17.104494      22.744816    
   3312000   0.97519594     17.23609       22.544543    
   3313000   1.0009904      17.119199      22.492998    
   3314000   0.95828341     17.575046      22.401556    
   3315000   1.007636       17.175931      22.505789    
   3316000   1.0165827      17.54768       22.490968    
   3317000   0.94525303     17.374799      22.123711    
   3318000   1.0091899      16.998662      21.874547    
   3319000   1.025409       17.400124      21.966466    
   3320000   1.0378446      17.505948      21.949667    
   3321000   0.99716669     17.594143      21.894693    
   3322000   0.9657271      17.079542      21.669156    
   3323000   0.99146687     17.526643      21.566506    
   3324000   0.97836828     17.169272      21.574072    
   3325000   1.0087072      17.309332      21.481998    
   3326000   0.96576011     16.769064      21.280204    
   3327000   0.96971282     17.003013      21.048765    
   3328000   0.99932697     16.937015      20.841619    
   3329000   1.0200172      17.614754      20.699368    
   3330000   1.0022782      17.291123      20.539108    
   3331000   1.0187172      17.288979      20.294399    
   3332000   1.0045808      17.016531      20.131573    
   3333000   0.97849516     16.757949      20.314839    
   3334000   1.0202673      17.212675      20.282821    
   3335000   1.0484639      17.286816      20.226758    
   3336000   0.98791295     16.529989      20.284359    
   3337000   0.94696227     17.34417       20.22315     
   3338000   1.0312295      17.517877      20.213415    
   3339000   0.95995432     17.176049      20.031611    
   3340000   0.96755996     17.004217      20.07364     
   3341000   1.0246494      17.414703      20.104403    
   3342000   0.99462538     17.426907      20.148662    
   3343000   1.0362935      17.149867      20.192198    
   3344000   0.99634267     16.651943      20.089263    
   3345000   1.0542476      17.266905      19.918794    
   3346000   0.98788882     17.675774      19.910912    
   3347000   1.029312       17.564452      19.938404    
   3348000   0.98058473     17.293907      20.012242    
   3349000   0.97934138     17.362611      19.984265    
   3350000   0.95585009     17.156683      20.056173    
   3351000   1.018074       16.977016      19.932641    
   3352000   1.0355468      17.140724      19.843198    
   3353000   0.9735252      17.435992      19.631768    
   3354000   0.99197113     17.305553      19.571724    
   3355000   0.98795583     17.229454      19.575727    
   3356000   1.0105779      16.751432      19.718741    
   3357000   1.01323        17.526103      19.699386    
   3358000   0.9368282      17.394224      19.600349    
   3359000   1.0012349      17.255563      19.456806    
   3360000   1.0163832      17.043864      19.538598    
   3361000   0.99627422     17.268048      19.774012    
   3362000   0.98350666     16.528712      19.963711    
   3363000   0.99151856     17.438533      19.568821    
   3364000   1.0048004      16.778064      19.679296    
   3365000   1.0036355      16.977236      19.48109     
   3366000   0.96303977     17.034666      19.545148    
   3367000   0.95855262     17.015039      19.477906    
   3368000   1.0180719      16.918332      19.524307    
   3369000   0.96285295     17.162013      19.270985    
   3370000   1.0034741      16.605692      19.357586    
   3371000   1.0002843      16.984001      19.354561    
   3372000   1.0222981      17.194038      19.172223    
   3373000   1.0014832      17.463731      19.135072    
   3374000   1.025882       17.280553      19.176064    
   3375000   0.99478465     17.811196      19.051349    
   3376000   0.99693728     17.627038      18.785318    
   3377000   1.0285767      17.438409      18.744007    
   3378000   1.0113788      16.956084      18.645347    
   3379000   1.0297458      17.077677      18.628611    
   3380000   0.96136071     17.330047      18.570439    
   3381000   0.94856566     17.064313      18.664206    
   3382000   1.0292403      17.23239       18.58584     
   3383000   1.0071058      16.935276      18.612514    
   3384000   1.0274503      17.279707      18.32295     
   3385000   0.93460397     17.358445      18.308965    
   3386000   1.0067368      17.359532      18.393332    
   3387000   1.02811        17.374175      18.221439    
   3388000   1.0026492      17.441289      18.145329    
   3389000   1.0247267      17.617186      17.989123    
   3390000   0.99581996     16.898379      17.729319    
   3391000   1.0190468      17.197812      17.553286    
   3392000   0.98716707     17.235654      17.374127    
   3393000   0.98819822     17.849594      17.373482    
   3394000   1.0134724      17.405379      17.527315    
   3395000   1.0194549      17.553659      17.528056    
   3396000   0.9900926      17.496509      17.39707     
   3397000   0.99573256     17.473217      17.24061     
   3398000   1.0294768      17.089921      17.255087    
   3399000   1.0134298      17.420657      17.204188    
   3400000   0.99579874     17.407778      16.997818    
   3401000   1.0182955      17.390203      16.808037    
   3402000   0.96863115     16.834883      16.640764    
   3403000   1.0049478      17.034457      16.571909    
   3404000   0.99661546     17.267601      16.506829    
   3405000   0.99903801     17.391036      16.572463    
   3406000   0.99332856     16.742403      16.486761    
   3407000   1.0036214      17.128287      16.686147    
   3408000   0.98359875     17.66164       16.750968    
   3409000   0.98557563     17.066076      16.776116    
   3410000   0.99824738     17.230406      16.783383    
   3411000   1.0121035      17.320633      16.650538    
   3412000   0.96627687     16.631163      16.501328    
   3413000   1.0188025      17.02185       16.4445      
   3414000   1.0121613      16.616035      16.301481    
   3415000   1.0018804      17.056061      16.471492    
   3416000   1.0350473      16.645412      16.390774    
   3417000   0.98122218     17.303973      16.313617    
   3418000   0.96988424     17.197113      16.332587    
   3419000   1.0029786      17.063648      16.420826    
   3420000   1.0212716      17.214387      16.546469    
   3421000   1.0285187      17.13234       16.584304    
   3422000   0.97868241     16.500945      16.481634    
   3423000   0.979653       16.994846      16.713383    
   3424000   1.0515629      17.170528      16.455341    
   3425000   0.97931479     16.595773      16.251084    
   3426000   1.0216277      16.829755      16.198973    
   3427000   1.0291481      17.706084      16.448019    
   3428000   1.0098912      17.200521      16.298299    
   3429000   0.98432801     17.747081      16.182127    
   3430000   0.99047459     17.571089      16.102941    
   3431000   1.0044881      17.844425      16.15004     
   3432000   1.0152556      17.545643      15.99816     
   3433000   0.99317412     16.526107      15.919311    
   3434000   1.0715064      17.277628      15.691933    
   3435000   1.030575       17.311532      15.68578     
   3436000   0.99664218     17.081558      15.557414    
   3437000   0.99989568     17.626681      15.513188    
   3438000   0.98507958     16.914896      15.563542    
   3439000   1.0189914      16.792885      15.643502    
   3440000   1.0450135      17.616635      15.473374    
   3441000   1.0160633      16.995794      15.407643    
   3442000   0.99845632     16.98207       15.199704    
   3443000   0.98429061     17.300622      15.298021    
   3444000   1.0225391      16.930937      15.301546    
   3445000   0.97537517     17.573523      15.175662    
   3446000   1.0400757      17.278948      14.993332    
   3447000   0.97907163     16.505453      14.993008    
   3448000   0.9769839      17.545933      14.857624    
   3449000   0.98033243     16.740381      14.930562    
   3450000   0.9747073      17.071105      14.951969    
   3451000   0.99529301     17.192694      14.855258    
   3452000   0.95617236     17.037592      14.695841    
   3453000   1.0092278      16.962077      14.734559    
   3454000   1.0148662      16.944796      14.493308    
   3455000   1.0154534      17.386992      14.511517    
   3456000   0.972364       16.871952      14.417972    
   3457000   0.97160592     16.438957      14.382284    
   3458000   0.99705646     16.947437      14.424584    
   3459000   1.0077842      16.995588      14.531994    
   3460000   0.98999915     17.675316      14.538495    
   3461000   1.0130693      17.360837      14.547834    
   3462000   1.0240967      17.275103      14.484614    
   3463000   0.97540156     16.703576      14.421272    
   3464000   1.0074657      17.19889       14.523471    
   3465000   0.98372998     17.016713      14.408915    
   3466000   1.0306885      17.296823      14.179822    
   3467000   1.0231192      17.505759      14.172469    
   3468000   1.0012964      17.101414      14.161465    
   3469000   0.98730085     17.133245      14.119586    
   3470000   0.97592349     17.192825      13.906397    
   3471000   1.0301135      17.112024      13.622584    
   3472000   0.95945516     17.282942      13.413052    
   3473000   1.0173543      16.867669      13.3454      
   3474000   0.96347006     17.190377      13.343767    
   3475000   1.0048724      17.131931      13.146447    
   3476000   0.99009803     16.898626      12.96286     
   3477000   1.0019355      17.487196      12.986025    
   3478000   1.0132057      17.682481      12.87559     
   3479000   1.006705       17.185685      12.849128    
   3480000   1.0364605      17.157646      13.003086    
   3481000   0.98197272     17.124848      12.947384    
   3482000   1.0409847      16.890882      12.998887    
   3483000   1.0140857      16.883252      12.863061    
   3484000   1.0147792      17.517396      12.614881    
   3485000   0.97336057     17.427638      12.568613    
   3486000   1.0139033      17.048434      12.213986    
   3487000   1.030104       17.296385      12.071717    
   3488000   0.99986236     17.322749      11.916659    
   3489000   1.0246293      17.308993      11.788874    
   3490000   0.99259142     16.950558      11.754231    
   3491000   0.98631299     16.575611      11.631736    
   3492000   0.99876994     17.028857      11.660867    
   3493000   0.99736631     16.814639      11.761186    
   3494000   0.99452884     17.242244      11.744151    
   3495000   1.0064669      17.406338      11.54212     
   3496000   0.93001158     16.583972      11.424961    
   3497000   0.97329531     16.824559      11.283682    
   3498000   1.0144175      16.996158      11.179756    
   3499000   1.0011255      17.411528      11.07185     
   3500000   1.0042635      17.414517      10.850453    
   3501000   1.0060836      17.95403       10.816709    
   3502000   1.0654048      17.202845      10.819074    
   3503000   0.96830043     17.055245      10.826442    
   3504000   1.0075324      16.86533       11.04864     
   3505000   0.97087907     16.913949      10.882332    
   3506000   1.0103336      16.875229      10.830524    
   3507000   0.97147477     17.287701      10.798289    
   3508000   1.0188002      17.109692      10.760084    
   3509000   0.99318414     17.471021      10.673184    
   3510000   0.99222948     16.61692       10.628872    
   3511000   1.006829       17.094653      10.441616    
   3512000   1.0068968      17.119443      10.325536    
   3513000   1.0108465      17.072675      10.291591    
   3514000   1.0184974      17.408462      10.344471    
   3515000   1.023058       17.012039      10.259713    
   3516000   0.97033312     16.90662       10.294997    
   3517000   1.0312978      17.827677      10.275384    
   3518000   1.0632253      17.126524      10.009378    
   3519000   0.94836821     17.046114      9.8669036    
   3520000   1.0370283      17.496455      9.9697811    
   3521000   1.0251599      16.827054      9.9235604    
   3522000   0.98761064     16.798645      10.08501     
   3523000   0.97796885     17.121856      10.155403    
   3524000   0.98481953     17.476032      10.109114    
   3525000   1.0100593      16.846772      10.043955    
   3526000   0.94947733     17.26444       9.9533674    
   3527000   1.0116133      17.246287      9.8416325    
   3528000   1.0261057      17.469161      9.9788642    
   3529000   1.0149249      17.391347      9.8347169    
   3530000   1.0241189      16.84159       9.6337052    
   3531000   0.96816381     16.71851       9.6085308    
   3532000   0.98923089     17.164242      9.6940095    
   3533000   1.0322613      17.488979      9.5475448    
   3534000   0.96550208     16.942941      9.4821535    
   3535000   0.99955761     16.840991      9.3284877    
   3536000   0.99022821     16.57989       9.2042145    
   3537000   1.0329413      17.246841      9.1735936    
   3538000   0.98217148     17.002397      8.8936951    
   3539000   1.0326199      17.494893      8.6831957    
   3540000   1.0322652      16.559162      8.4494465    
   3541000   1.0348079      16.85953       8.3697544    
   3542000   1.047217       17.511173      8.4239733    
   3543000   1.0190657      17.226757      8.2260709    
   3544000   1.0080232      17.067915      8.216105     
   3545000   1.0405453      17.176773      8.0709878    
   3546000   0.97632726     17.270941      8.0109499    
   3547000   1.0228155      16.957987      8.0845569    
   3548000   1.0207137      16.770319      7.8423063    
   3549000   0.98984513     17.312653      7.5731602    
   3550000   0.984021       16.834943      7.4103214    
   3551000   0.984007       17.141351      7.1554835    
Fix halt condition for fix-id 3 met on step 3552000 with value 6.867411899125744 (src/fix_halt.cpp:237)
   3552000   1.0447459      17.454255      6.8674119    
Loop time of 5499.15 on 2 procs for 3452000 steps with 1100 atoms

Performance: 542361.912 tau/day, 627.734 timesteps/s
124.1% CPU use with 1 MPI tasks x 2 OpenMP threads

MPI task timing breakdown:
Section |  min time  |  avg time  |  max time  |%varavg| %total
---------------------------------------------------------------
Pair    | 1001.9     | 1001.9     | 1001.9     |   0.0 | 18.22
Bond    | 80.165     | 80.165     | 80.165     |   0.0 |  1.46
Neigh   | 4222.7     | 4222.7     | 4222.7     |   0.0 | 76.79
Comm    | 1.3468     | 1.3468     | 1.3468     |   0.0 |  0.02
Output  | 8.0568     | 8.0568     | 8.0568     |   0.0 |  0.15
Modify  | 171.43     | 171.43     | 171.43     |   0.0 |  3.12
Other   |            | 13.55      |            |       |  0.25

Nlocal:           1100 ave        1100 max        1100 min
Histogram: 1 0 0 0 0 0 0 0 0 0
Nghost:              0 ave           0 max           0 min
Histogram: 1 0 0 0 0 0 0 0 0 0
Neighs:         248761 ave      248761 max      248761 min
Histogram: 1 0 0 0 0 0 0 0 0 0

Total # of neighbors = 248761
Ave neighs/atom = 226.14636
Ave special neighs/atom = 1.9981818
Neighbor list builds = 33864
Dangerous builds = 0

# This simulation is done
# Move onto the next one
clear
  using 2 OpenMP thread(s) per MPI task
package omp 0
using multi-threaded neighbor list subroutines
next f
jump SELF

###
# Reference paper:
# K. Kremer and G. S. Grest
# Dynamics of entangled linear polymer melts: A molecular-dynamics simulation
# J Chem Phys 92, 5057 (1990)

##################################
# MIHIR: for branched polymers
# LJ minimum first to expand and explore, then collapse
###

###
# Looping through the various linear polymers to simulate,
# define variables to switch through
# variable f index bb100nuc0bl0bn0d30tot100 bb200nuc0bl0bn0d30tot200 bb300nuc0bl0bn0d30tot300 bb400nuc0bl0bn0d30tot400 bb500nuc0bl0bn0d30tot500 bb600nuc0bl0bn0d30tot600 bb700nuc0bl0bn0d30tot700 bb800nuc0bl0bn0d30tot800 bb900nuc0bl0bn0d30tot900 bb1000nuc0bl0bn0d30tot1000 bb1100nuc0bl0bn0d30tot1100 bb1200nuc0bl0bn0d30tot1200
variable f index bb800nuc0bl0bn0d30tot800 bb900nuc0bl0bn0d30tot900 bb1000nuc0bl0bn0d30tot1000 bb1100nuc0bl0bn0d30tot1100 bb1200nuc0bl0bn0d30tot1200
###


###
# Box and units  (use LJ units and periodic boundaries)
###

units lj
log linear/logs3/$f.log
log linear/logs3/bb1200nuc0bl0bn0d30tot1200.log
