#atom_style bond #no stiffness
atom_style angle #with stiffness

boundary        p p p
###
# Pair interactions require lists of neighbours to be calculated
###

#neighbor 0.3 bin
neighbor 4 bin

neigh_modify every 1 delay 1 check yes
atom_modify sort 0 0
### Generate RESTART file, SPECIAL format, not a .txt file ###
### Useful if simulation crashes ###

restart 1000000 linear/restarts3/$f.restart
restart 1000000 linear/restarts3/bb900nuc0bl0bn0d30tot900.restart
#############################



### READ "start" data file ###

read_data linear/$f.dat
read_data linear/bb900nuc0bl0bn0d30tot900.dat
Reading data file ...
  orthogonal box = (-1000 -1000 -1000) to (1000 1000 1000)
  1 by 1 by 1 MPI processor grid
  reading atoms ...
  900 atoms
  scanning bonds ...
  1 = max bonds/atom
  scanning angles ...
  1 = max angles/atom
  reading bonds ...
  899 bonds
  reading angles ...
  898 angles
Finding 1-2 1-3 1-4 neighbors ...
  special bond factors lj:    0        0        0       
  special bond factors coul:  0        0        0       
     2 = max # of 1-2 neighbors
     2 = max # of 1-3 neighbors
     4 = max # of 1-4 neighbors
     6 = max # of special neighbors
  special bonds CPU = 0.001 seconds
  read_data CPU = 0.085 seconds

######################

### READ "REstart" data file ###

######################



###
# Define groups (atom type 1 is group 'all')
###
group all type 1
900 atoms in group all


###
# Dump configs - "simple dumpings"
###

###
# Dump configs + box coords
###

dump   1   all   custom   1000  linear/trjs3/$f.lammpstrj  id  x y z  ix iy iz
dump   1   all   custom   1000  linear/trjs3/bb900nuc0bl0bn0d30tot900.lammpstrj  id  x y z  ix iy iz
dump_modify   1   format line "%d %.5f %.5f %.5f %d %d %d"

########################################################################


###################################################################
# Stiffness term
#
# E = K * (1+cos(theta)), K>0
#
angle_style   cosine
#change this coefficient to change stiffness (e.g. 1,5,10)
angle_coeff   1 1.0
###################################################################

###################################################################
# Pair interaction between non-bonded atoms
#
#  Lennard-Jones 12-6 potential with cutoff:
#  potential E=4epsilon[ (sigma/r)^12 - (sigma/r)^6]  for r<r_cut
#
#  1.12246 = 2^(1/6) is the minimum of the potential


pair_style      lj/cut 1.12246152962189
#pair_style      lj/cut 3

#
#  pair_modify shift yes adds a constant to the potential such

#  that E(r_cut)=0. Forces remains unchanged.
#

pair_modify     shift yes

#
#  pair_coeff for lj/cut, specify 4:
#    * atom type interacting with
#    * atom type
#    * epsilon (energy units)
#    * sigma (distance units)
#

pair_coeff      1 1 1.0 1.0
###################################################################

###################################################################
# Pair interaction between non-bonded atoms
#
#  soft potential, for PUSHING apart overlapping atoms
#  potential E=A*(1 + cos(pi*r/r_c))
#
#  1.12246 = 2^(1/6) is the cut-off r_c

#pair_style     soft 1.12246152962189

#
#  pair_coeff for soft, specify 3:
#    * atom type interacting with
#    * atom type
#    * A
#
#

#pair_coeff      1 1 100.0
###################################################################

###################################################################
# Pair interaction between bonded atoms
#
# Fene potential + Lennard Jones 12-6:

#
#  E= - 0.5 K R0^2 ln[ 1- (r/R0)^2]
#     + 4epsilon[ (sigma/r)^12 - (sigma/r)^6] + epsilon
#

bond_style   fene


#
# For style fene, specify:
#   * bond type
#   * K (energy/distance^2)
#   * R0 (distance)
#   * epsilon (energy)  (LJ component)
#   * sigma (distance)  (LJ component)
#


special_bonds fene #<=== I M P O R T A N T (new command)
Finding 1-2 1-3 1-4 neighbors ...
  special bond factors lj:    0        1        1       
  special bond factors coul:  0        1        1       
     2 = max # of 1-2 neighbors
     6 = max # of special neighbors
  special bonds CPU = 0.000 seconds

bond_coeff   1   30   2   1.0   1.0


###################################################

###################################################################
# Pair interaction between bonded atoms
#
# Harmonic potential:
#
#  E= K * (R-R0)^2
#

#bond_style   harmonic

#
# For style harmonic, specify:
#   * bond type
#   * K (energy/distance^2)
#   * R0 (distance)
#

#bond_coeff   1   60.0   1.0
#bond_coeff   2   harmonic 0.1   1.0

###################################################
compute 1 all gyration
variable rog equal c_1
#compute 2 all coord/atom cutoff 1.1

#dump 2 all custom 10000 contact_number.dump id c_2


###
# Set up fixes
###
thermo_style   custom   step  temp enthalpy c_1
fix 1 all nve   ###NVE ensemble

fix 2 all   langevin   1.0 1.0 1.0  158102   ###Langevin integrator Tstart Tstop 1/friction rndseed


##### Sample thermodynamic info  (temperature, energy, pressure, etc.) #####
thermo 1000









############################################################################

###
# set timestep of integrator

timestep 0.01

###
# run integration for a number of steps
###
#run 0
#variable r equal c_1
#if "$r < 63.1" then "quit 1"

# lj potential minimum, cause molecule to explore
run 100000
Generated 0 of 0 mixed pair_coeff terms from geometric mixing rule
Last active /omp style is angle_style cosine/omp
Neighbor list info ...
  update: every = 1 steps, delay = 1 steps, check = yes
  max neighbors/atom: 2000, page size: 100000
  master list distance cutoff = 5.1224615
  ghost atom cutoff = 5.1224615
  binsize = 2.5612308, bins = 781 781 781
  1 neighbor lists, perpetual/occasional/extra = 1 0 0
  (1) pair lj/cut/omp, perpetual
      attributes: half, newton on, omp
      pair build: half/bin/newton/omp
      stencil: half/bin/3d
      bin: standard
WARNING: Communication cutoff 5.12246152962189 is shorter than a bond length based estimate of 5.455. This may lead to errors. (src/comm.cpp:723)
Per MPI rank memory allocation (min/avg/max) = 1860 | 1860 | 1860 Mbytes
   Step          Temp         Enthalpy         c_1      
         0   0              13.411709      225.00026    
      1000   0.96824713     18.834021      224.86434    
      2000   0.98956945     19.12996       224.71631    
      3000   1.084516       18.865592      224.81526    
      4000   1.0282145      18.531093      224.57543    
      5000   0.95977749     18.306458      224.57553    
      6000   0.98647254     19.026719      224.30864    
      7000   1.0218746      18.964575      224.24115    
      8000   0.95888972     18.423455      223.90186    
      9000   0.95228659     18.40254       223.77218    
     10000   1.0422456      19.337695      223.49447    
     11000   0.98563674     18.700102      223.31792    
     12000   1.0140494      19.586322      223.25784    
     13000   0.99312164     18.898724      223.05378    
     14000   1.0009998      19.27506       223.00153    
     15000   1.0096915      19.078308      222.92375    
     16000   1.0144684      18.993578      222.80051    
     17000   1.0209058      18.94332       222.87502    
     18000   0.99182033     19.288014      222.85909    
     19000   0.97503585     18.589238      222.49586    
     20000   1.0661814      19.077651      222.25033    
     21000   1.0365139      18.649609      222.04749    
     22000   1.0018734      19.349277      221.85494    
     23000   0.9959438      19.234483      221.65598    
     24000   1.0050629      18.965925      221.54299    
     25000   1.026423       18.990505      221.79433    
     26000   0.9944557      18.926758      221.54689    
     27000   0.97341621     19.188523      221.19848    
     28000   0.98939122     19.335496      220.98689    
     29000   1.0607751      18.560032      220.69003    
     30000   1.0314477      18.936896      221.01003    
     31000   0.97119532     18.417772      220.8064     
     32000   1.010703       18.585892      220.50663    
     33000   0.99920454     19.062285      220.40131    
     34000   0.98161327     19.226087      220.4863     
     35000   1.0313909      19.164519      220.1493     
     36000   1.0305098      19.301827      219.92173    
     37000   0.99474444     18.791257      219.7739     
     38000   1.0082776      19.155043      219.89756    
     39000   0.97928731     18.658545      219.83856    
     40000   0.96440884     18.643878      219.5732     
     41000   1.0440339      19.057888      219.39411    
     42000   0.94157375     19.058424      219.28286    
     43000   1.0142409      19.394249      218.94465    
     44000   1.058751       19.662308      218.66744    
     45000   1.0209323      19.199038      218.49608    
     46000   1.0006861      19.105366      218.34629    
     47000   0.96404559     18.838951      218.15958    
     48000   1.0258414      19.116598      217.90467    
     49000   1.0190049      19.639023      217.66543    
     50000   0.98989578     19.242383      217.50628    
     51000   1.0287286      19.935843      217.45573    
     52000   0.97719763     18.701696      217.15997    
     53000   1.0503125      19.35692       217.26802    
     54000   1.0244606      18.845574      216.93089    
     55000   0.98450238     18.803356      216.84213    
     56000   0.98650923     19.240671      216.59299    
     57000   1.0173554      18.746445      216.14391    
     58000   1.0195943      19.081672      216.00042    
     59000   1.0110137      19.192976      215.80592    
     60000   1.0049187      19.275937      215.57539    
     61000   1.029802       19.567867      215.46521    
     62000   1.014864       19.148247      215.25799    
     63000   1.0050177      19.375351      215.05529    
     64000   1.0142791      19.570297      214.94722    
     65000   1.0201203      19.766323      214.89928    
     66000   1.0102868      19.892094      214.81726    
     67000   0.97419681     19.470762      214.92974    
     68000   1.0221937      19.402246      214.68677    
     69000   0.9836787      19.543786      214.63584    
     70000   0.98357167     19.634127      214.40768    
     71000   0.97880255     19.287694      214.15354    
     72000   0.98810151     19.631054      214.18683    
     73000   0.99071315     19.749695      214.28064    
     74000   0.99119172     19.445745      214.02813    
     75000   1.0088211      19.77709       213.75798    
     76000   0.98523436     19.484519      213.63492    
     77000   0.97100326     19.067778      213.43625    
     78000   0.96439235     19.105428      213.2454     
     79000   0.99524107     19.273959      213.19308    
     80000   0.99571525     19.672216      212.91328    
     81000   1.0022901      19.415352      212.681      
     82000   0.97103664     19.798064      212.36048    
     83000   1.0076946      19.611176      212.164      
     84000   1.0181605      19.38191       211.94361    
     85000   1.0654659      19.813796      212.00439    
     86000   0.98113231     19.256912      212.17526    
     87000   1.0096446      19.019957      211.77475    
     88000   1.0092611      19.646823      211.67393    
     89000   0.99444402     19.122628      211.6473     
     90000   1.0332379      19.039986      211.91089    
     91000   1.0426695      19.838034      211.81781    
     92000   1.056182       19.377898      211.71172    
     93000   0.9824153      19.589674      211.38447    
     94000   1.0347283      19.030666      211.16096    
     95000   0.96738741     18.664878      210.82612    
     96000   1.0156169      19.266541      210.39494    
     97000   1.0220162      19.485113      210.24753    
     98000   0.95483335     19.174276      210.20283    
     99000   1.0246193      19.423037      210.13691    
    100000   0.98348195     19.698862      209.91897    
Loop time of 298.252 on 2 procs for 100000 steps with 900 atoms

Performance: 289688.388 tau/day, 335.287 timesteps/s
103.6% CPU use with 1 MPI tasks x 2 OpenMP threads

MPI task timing breakdown:
Section |  min time  |  avg time  |  max time  |%varavg| %total
---------------------------------------------------------------
Pair    | 1.0209     | 1.0209     | 1.0209     |   0.0 |  0.34
Bond    | 2.3397     | 2.3397     | 2.3397     |   0.0 |  0.78
Neigh   | 289.07     | 289.07     | 289.07     |   0.0 | 96.92
Comm    | 0.034936   | 0.034936   | 0.034936   |   0.0 |  0.01
Output  | 0.26769    | 0.26769    | 0.26769    |   0.0 |  0.09
Modify  | 5.1704     | 5.1704     | 5.1704     |   0.0 |  1.73
Other   |            | 0.3466     |            |       |  0.12

Nlocal:            900 ave         900 max         900 min
Histogram: 1 0 0 0 0 0 0 0 0 0
Nghost:              0 ave           0 max           0 min
Histogram: 1 0 0 0 0 0 0 0 0 0
Neighs:           4458 ave        4458 max        4458 min
Histogram: 1 0 0 0 0 0 0 0 0 0

Total # of neighbors = 4458
Ave neighs/atom = 4.9533333
Ave special neighs/atom = 1.9977778
Neighbor list builds = 1034
Dangerous builds = 0

# Replace lj potential, now collapse
pair_style      lj/cut 3

# Cutoff simul when gyration under 5
# Variable created with equal requires v_ + 'name'
fix 3 all halt 1000 v_rog < 7

run 5000000
Generated 0 of 0 mixed pair_coeff terms from geometric mixing rule
Last active /omp style is angle_style cosine/omp
Per MPI rank memory allocation (min/avg/max) = 1860 | 1860 | 1860 Mbytes
   Step          Temp         Enthalpy         c_1      
    100000   0.98348195     19.248664      209.91897    
    101000   1.0013485      19.0727        209.67962    
    102000   1.0035204      19.034138      209.43233    
    103000   1.0277617      18.868499      208.99094    
    104000   0.99444197     19.066165      208.85562    
    105000   0.99245636     18.383647      208.9053     
    106000   1.0245124      19.009164      208.88891    
    107000   1.0107616      18.784023      208.94896    
    108000   0.98996744     19.261888      208.86486    
    109000   1.0053008      19.195596      208.76979    
    110000   1.0457776      19.358635      208.61358    
    111000   0.98333408     18.700794      208.13287    
    112000   1.0007541      18.820554      207.80266    
    113000   0.9988666      19.385861      207.85536    
    114000   0.98335546     18.849449      207.61694    
    115000   0.97160134     19.227186      207.38976    
    116000   0.97739031     19.181025      207.45227    
    117000   0.98047045     19.094432      207.11681    
    118000   0.98667099     19.241941      206.84595    
    119000   0.97555433     19.489992      207.02369    
    120000   0.99965697     19.391571      206.8926     
    121000   1.0252801      19.124663      206.68347    
    122000   1.0140315      18.890849      206.56381    
    123000   0.99843335     18.774368      206.55034    
    124000   0.9636238      18.839286      206.35032    
    125000   1.0119152      18.775445      206.18398    
    126000   1.0195346      19.141232      206.05159    
    127000   0.98944333     19.785252      205.84368    
    128000   1.0197335      19.248973      205.67251    
    129000   1.0271303      18.816994      205.71126    
    130000   1.0245399      19.325085      205.61442    
    131000   1.0232615      19.263443      205.29969    
    132000   1.0014306      18.857487      205.12177    
    133000   0.97277159     19.120244      204.92933    
    134000   1.0320732      19.574687      204.83112    
    135000   1.0019598      19.123761      204.86844    
    136000   0.99803196     19.327153      204.82123    
    137000   1.0151186      18.899352      204.6372     
    138000   0.9770683      19.073515      204.3427     
    139000   0.98739233     18.392758      204.07698    
    140000   0.99010743     18.816364      204.07506    
    141000   1.0093054      19.379184      203.88626    
    142000   0.95716376     19.221212      203.84793    
    143000   0.93678217     18.620363      203.60531    
    144000   0.98790334     19.096851      203.55092    
    145000   0.97627189     18.293813      203.53625    
    146000   1.0150104      18.929359      203.54097    
    147000   1.028736       19.489827      203.69807    
    148000   1.0326197      18.830445      203.49435    
    149000   1.0045204      19.137113      203.25278    
    150000   0.98790868     18.681077      203.23116    
    151000   0.96720975     18.665344      202.82389    
    152000   1.0010953      18.877729      202.7687     
    153000   0.98311725     19.085042      202.80171    
    154000   0.9703178      18.814184      202.343      
    155000   1.0600988      19.18629       202.02961    
    156000   0.99399186     18.739234      201.76817    
    157000   1.0422493      19.093169      201.40008    
    158000   1.0093918      19.327941      201.28068    
    159000   0.94449516     18.752198      201.04525    
    160000   0.93311155     18.816236      200.96165    
    161000   0.99868433     19.108871      200.85226    
    162000   1.0189759      19.081401      200.99357    
    163000   0.97267497     19.311102      200.82852    
    164000   1.0305549      19.192178      200.68202    
    165000   0.9446214      19.076187      200.67366    
    166000   0.99337602     19.017037      200.60225    
    167000   0.97750983     19.177847      200.58958    
    168000   1.0630974      19.203561      200.53711    
    169000   0.99835913     18.615241      200.34788    
    170000   0.98319055     19.402511      200.38724    
    171000   0.93278385     19.131029      200.30225    
    172000   1.0528061      18.481005      200.18043    
    173000   1.016607       19.038669      200.01928    
    174000   0.977596       18.564804      199.63416    
    175000   0.9054706      18.23845       199.59111    
    176000   1.0147794      18.992254      199.48595    
    177000   1.0021857      19.187492      199.22385    
    178000   1.0090507      19.210729      198.83592    
    179000   0.96368947     18.596295      198.7624     
    180000   0.99364091     19.368844      198.83089    
    181000   0.98158633     19.222207      198.79999    
    182000   1.0078538      18.874207      198.27454    
    183000   0.95345066     19.263906      197.8985     
    184000   1.0141247      19.120048      197.80348    
    185000   1.0149026      18.50051       197.75611    
    186000   1.0149898      19.25004       197.61283    
    187000   0.99899507     18.565864      197.4331     
    188000   0.98303637     18.980158      196.95566    
    189000   1.0492696      18.986654      196.68793    
    190000   0.96893347     18.80901       196.71974    
    191000   0.95974032     18.762979      196.50542    
    192000   1.0507012      19.177264      196.37953    
    193000   1.0408267      19.123149      196.36751    
    194000   1.0508074      18.884513      196.16596    
    195000   1.0297504      18.908219      195.97076    
    196000   1.0029049      19.301101      196.03629    
    197000   0.95625931     19.383486      195.92881    
    198000   0.9892593      19.315747      195.77398    
    199000   1.0333278      19.254321      195.38727    
    200000   0.98708412     18.728942      195.10777    
    201000   1.0582689      19.310829      194.85012    
    202000   1.0220905      19.178752      194.63277    
    203000   1.0434368      18.838344      194.66567    
    204000   1.0529132      19.259184      194.59528    
    205000   0.97534519     19.329684      194.63747    
    206000   0.98819424     18.71263       194.4093     
    207000   0.99796285     18.721375      194.481      
    208000   1.0221552      19.205247      194.30883    
    209000   1.0271014      19.028073      194.12701    
    210000   0.9932155      18.963477      193.88091    
    211000   0.97448762     19.014019      193.84199    
    212000   0.99148159     19.18255       193.75133    
    213000   0.99443604     19.333819      193.65278    
    214000   0.99110637     19.316673      193.72309    
    215000   0.96994215     18.69551       193.72925    
    216000   0.96525224     19.002972      193.4567     
    217000   1.0345246      19.128978      193.37618    
    218000   1.0059693      19.183552      193.15672    
    219000   1.002489       19.134366      193.07637    
    220000   0.9772121      18.997734      192.93223    
    221000   0.96532081     19.119307      192.62443    
    222000   0.99665557     18.755034      192.14514    
    223000   0.97731872     18.638943      191.97541    
    224000   1.0061147      19.305811      191.88999    
    225000   1.0174107      18.965802      191.63881    
    226000   1.0159344      18.849338      191.16223    
    227000   0.97169666     19.354043      191.52689    
    228000   0.99335153     19.290584      191.42751    
    229000   0.97616646     19.480464      191.28231    
    230000   1.0413305      19.09998       191.1864     
    231000   1.0220085      19.164806      191.06297    
    232000   0.98630054     19.025498      191.03904    
    233000   0.99885632     19.174223      190.81378    
    234000   0.98660108     18.733723      190.67648    
    235000   0.98224338     19.119917      190.34193    
    236000   1.0419716      18.95414       190.46791    
    237000   1.0166292      19.537036      190.43236    
    238000   0.99631195     19.024393      190.30906    
    239000   0.99341675     19.124385      189.90909    
    240000   1.0092065      19.003241      189.89014    
    241000   0.94774066     18.709617      189.99955    
    242000   0.95384945     19.405559      189.78533    
    243000   0.96957136     18.645613      189.57074    
    244000   1.0368351      19.396553      189.37914    
    245000   1.0197158      19.645126      189.21309    
    246000   1.0351028      19.164449      189.31073    
    247000   0.97573086     18.60772       189.17878    
    248000   0.994606       19.081306      188.92444    
    249000   0.98521239     18.217582      188.8368     
    250000   0.99142198     18.533443      188.62545    
    251000   0.99792331     19.174427      188.37979    
    252000   0.98078023     18.592679      188.11568    
    253000   0.95328074     19.052789      187.92319    
    254000   1.0175262      19.447529      187.75631    
    255000   0.96433397     18.617992      187.68124    
    256000   1.0547253      18.851491      187.40507    
    257000   0.95196611     18.795903      187.12811    
    258000   0.99760038     19.40125       187.1447     
    259000   1.0394067      18.696794      186.91514    
    260000   1.0025884      18.476717      186.63516    
    261000   0.97246981     19.433679      186.47186    
    262000   0.96013275     18.276913      186.31695    
    263000   1.0066498      18.79138       186.55082    
    264000   0.97879676     18.999239      186.27248    
    265000   0.98377116     18.628421      186.08092    
    266000   1.0075368      18.695895      186.11649    
    267000   0.99548347     19.126946      186.11354    
    268000   0.98161825     18.940244      186.00782    
    269000   0.97630012     19.160423      185.77255    
    270000   0.99530846     19.027618      185.71949    
    271000   1.0421753      19.15092       185.59676    
    272000   0.99272703     19.024228      185.40912    
    273000   1.0004615      18.623436      185.43556    
    274000   0.97755222     18.675256      185.3691     
    275000   1.0455283      19.395855      185.00103    
    276000   1.0301466      19.53432       185.12254    
    277000   0.99177704     18.411534      184.81556    
    278000   1.0367355      19.254108      184.5621     
    279000   0.96861452     19.097108      184.43024    
    280000   0.9899394      18.931329      184.31809    
    281000   1.0357719      18.84389       184.18488    
    282000   0.97864908     19.196946      184.24327    
    283000   1.0523329      19.658918      184.15914    
    284000   0.99880882     18.98689       184.02482    
    285000   0.96716392     19.499702      183.87519    
    286000   1.0182936      18.81061       183.6383     
    287000   0.96232841     18.812531      183.48574    
    288000   0.98758774     18.904989      183.53028    
    289000   0.98398084     18.29479       183.3734     
    290000   0.99863131     18.962444      183.11239    
    291000   1.0069884      18.935047      182.94627    
    292000   1.0129345      18.794987      182.69559    
    293000   0.99295195     18.82062       182.58484    
    294000   1.008808       19.451812      182.57704    
    295000   0.96670104     18.681612      182.52494    
    296000   1.0170759      19.039278      182.32402    
    297000   0.97041038     18.676409      182.13421    
    298000   0.99066797     19.415547      181.82662    
    299000   0.9454053      19.139475      181.23248    
    300000   0.9818938      18.542437      180.9899     
    301000   1.0237609      19.031281      180.95629    
    302000   1.0564278      18.79682       180.65965    
    303000   0.98981372     19.198586      180.40803    
    304000   1.0184977      19.51167       180.10288    
    305000   0.99984591     18.62778       179.92824    
    306000   1.0039906      19.191516      179.85135    
    307000   1.0305657      19.234768      179.91947    
    308000   1.0424405      18.572132      179.90174    
    309000   0.97190228     18.584072      179.65727    
    310000   0.9114706      18.596861      179.42235    
    311000   0.9595362      18.686341      179.4851     
    312000   1.0044345      19.34183       178.99441    
    313000   1.0523998      19.006724      178.73337    
    314000   1.0251663      19.633628      178.45403    
    315000   1.0365455      18.87756       178.43714    
    316000   1.0538547      19.108584      178.30179    
    317000   0.99950466     18.77615       178.57931    
    318000   0.96868112     18.673015      178.4136     
    319000   0.97450668     18.368415      178.18084    
    320000   1.0258008      18.571935      178.08182    
    321000   0.9655264      18.59396       177.96954    
    322000   1.0491311      19.254113      178.04796    
    323000   0.96982514     19.678231      177.98817    
    324000   0.95919225     18.747469      177.74439    
    325000   1.0054995      18.699635      177.37542    
    326000   0.95108056     19.285579      177.12118    
    327000   0.99934192     18.496786      176.95021    
    328000   0.9744448      18.813091      176.84814    
    329000   1.0134596      19.028457      176.83481    
    330000   1.026961       19.409317      176.72261    
    331000   0.96506159     19.410342      176.52034    
    332000   0.978841       18.993297      176.46239    
    333000   0.98625184     19.031185      176.29368    
    334000   1.0492567      19.485252      176.06658    
    335000   1.0133112      18.64509       175.91079    
    336000   1.0232593      19.268586      175.63615    
    337000   0.9816486      18.852097      175.39737    
    338000   1.0063667      19.450344      175.06486    
    339000   0.99108181     18.710317      174.77969    
    340000   0.99632996     18.746546      174.67372    
    341000   1.0132685      19.080282      174.6883     
    342000   1.0025718      18.685484      174.34573    
    343000   1.0015702      19.184851      174.17906    
    344000   0.99391297     18.70249       174.03069    
    345000   0.98389783     19.29617       174.21115    
    346000   0.96791926     18.810935      174.16696    
    347000   0.99337506     19.58528       174.04015    
    348000   0.98416624     19.231158      173.9995     
    349000   0.963          18.493528      173.73291    
    350000   0.97061044     18.708448      173.80953    
    351000   1.0170864      18.65643       173.7226     
    352000   1.0186373      18.825039      173.56796    
    353000   1.0583325      19.680564      173.53354    
    354000   0.97675871     18.768359      173.61636    
    355000   1.0308887      19.376412      173.30133    
    356000   1.0083098      19.224338      173.27367    
    357000   0.99782141     19.312868      172.98745    
    358000   0.9675515      19.174845      172.67901    
    359000   1.0305423      18.993361      172.70843    
    360000   0.96800951     18.906567      172.49093    
    361000   1.0452742      18.531517      172.21827    
    362000   1.050485       19.356149      172.2976     
    363000   0.99905558     19.0653        172.02619    
    364000   1.0180174      18.83159       171.8292     
    365000   1.0471767      18.485603      171.72989    
    366000   0.97510826     18.812302      171.68208    
    367000   0.97730679     18.45797       171.47322    
    368000   0.98911247     18.277794      171.53926    
    369000   0.98580941     18.67975       171.48437    
    370000   1.0392869      19.002533      171.437      
    371000   0.96427636     18.689082      171.46981    
    372000   0.9997941      18.814636      171.32697    
    373000   0.97091927     19.08084       171.29663    
    374000   0.98663724     18.979507      171.19175    
    375000   0.98056666     19.140816      170.98525    
    376000   1.0491351      19.549508      170.73399    
    377000   1.008206       19.167325      170.44388    
    378000   0.97618524     18.896978      170.27111    
    379000   0.93435609     18.551513      170.40217    
    380000   0.98161944     18.998632      170.40107    
    381000   0.97097889     19.079759      170.18584    
    382000   0.93296243     18.983517      170.25539    
    383000   0.99549273     19.362204      170.10995    
    384000   0.99888073     18.880125      169.91694    
    385000   1.0229364      19.462813      169.79879    
    386000   1.0064699      19.378214      169.72308    
    387000   0.96486916     18.835712      169.63191    
    388000   0.97975583     19.052699      169.67712    
    389000   1.0000303      18.324254      169.46741    
    390000   1.0510483      18.907314      169.41267    
    391000   0.96779165     18.258897      169.2299     
    392000   1.002357       18.797094      169.24155    
    393000   1.0438099      18.772491      169.34134    
    394000   0.99577201     18.895031      169.26549    
    395000   1.0410707      18.678733      169.09402    
    396000   1.0033263      18.807104      169.18731    
    397000   1.0163305      18.608079      169.1437     
    398000   0.99679157     18.424343      168.73647    
    399000   1.0778275      19.143714      168.4512     
    400000   1.0100066      18.677112      168.31587    
    401000   0.98629436     19.023398      168.2634     
    402000   1.03449        18.486762      168.15298    
    403000   0.99878545     19.026557      168.09983    
    404000   0.99846471     19.145423      168.02428    
    405000   0.98774801     18.644799      167.75372    
    406000   0.99251767     18.769071      167.83154    
    407000   0.98052248     18.634756      167.52738    
    408000   1.0225822      18.793845      167.60583    
    409000   0.99123498     18.789394      167.23014    
    410000   0.97573458     18.684202      167.05847    
    411000   0.96880418     18.998372      166.93851    
    412000   1.0041119      19.319094      166.70018    
    413000   0.97433065     18.920268      166.58811    
    414000   0.98975656     18.920982      166.64371    
    415000   1.011458       19.034913      166.63176    
    416000   0.99585432     18.770289      166.66535    
    417000   1.0333647      18.991986      166.5663     
    418000   0.99160346     18.889232      166.54903    
    419000   1.0056478      19.021091      166.49406    
    420000   1.0092793      18.307837      166.46715    
    421000   1.005681       18.88468       166.34087    
    422000   0.9891741      18.91082       166.27726    
    423000   1.0225129      19.185711      166.24746    
    424000   1.0039577      18.720992      165.99234    
    425000   0.96512621     18.796622      165.61272    
    426000   0.97826342     18.781659      165.46939    
    427000   0.95640488     19.178532      165.36722    
    428000   0.99002053     18.419898      164.90672    
    429000   1.0116888      19.422015      164.74518    
    430000   1.0089146      19.383419      164.71008    
    431000   1.0299486      18.912972      164.53053    
    432000   0.99423758     18.933529      164.47602    
    433000   1.0235543      18.334602      164.34488    
    434000   0.96182463     19.089118      164.30133    
    435000   1.0284775      19.160921      164.39894    
    436000   0.96621122     18.768401      164.42801    
    437000   0.9919336      19.018478      164.45244    
    438000   1.0068978      18.751571      164.29962    
    439000   1.0008237      18.944403      164.18006    
    440000   1.0037783      18.762697      164.07416    
    441000   0.98194274     18.925642      163.68942    
    442000   0.98969217     18.639735      163.70974    
    443000   1.052478       18.475103      163.81299    
    444000   0.97619864     19.186848      163.60438    
    445000   0.9818157      18.536095      163.25073    
    446000   1.0105021      18.933522      163.10349    
    447000   0.97642465     18.80669       162.99267    
    448000   1.0282308      19.002011      162.84336    
    449000   0.9760083      18.651397      162.62266    
    450000   1.0031776      18.995408      162.48756    
    451000   1.007522       18.325212      162.71327    
    452000   0.9846841      18.814647      162.63877    
    453000   0.9931365      18.964342      162.34928    
    454000   1.0197177      18.929557      162.32664    
    455000   1.0194258      18.775355      162.22538    
    456000   1.0313751      19.020479      162.24661    
    457000   1.0345768      18.786916      162.08513    
    458000   0.98349062     18.407245      162.02857    
    459000   1.0015742      18.89357       161.92268    
    460000   0.97232134     19.343525      161.88661    
    461000   0.97514451     18.467511      161.77057    
    462000   0.99426845     19.019932      161.56384    
    463000   1.0002453      18.097331      161.63414    
    464000   1.0253958      18.717042      161.68455    
    465000   1.0092597      19.376523      161.62433    
    466000   0.95593279     18.782833      161.39191    
    467000   1.0195805      19.447371      161.57982    
    468000   1.012454       19.224385      161.74565    
    469000   1.0196368      18.584293      161.76022    
    470000   1.0097207      18.293704      161.60892    
    471000   0.98900312     18.416058      161.669      
    472000   1.0028315      18.407389      161.39044    
    473000   0.99279928     18.44849       161.22041    
    474000   0.96948998     19.032893      161.141      
    475000   1.0032038      18.828787      161.22441    
    476000   0.99218992     19.136121      161.16147    
    477000   0.93892464     18.482906      161.09755    
    478000   0.97197175     18.695262      160.87214    
    479000   1.042092       18.857296      160.60924    
    480000   0.98932315     18.778552      160.45751    
    481000   1.0051318      18.984439      160.14916    
    482000   1.0448796      18.824018      160.0101     
    483000   0.99704205     19.309559      159.97722    
    484000   1.0318112      19.12571       159.763      
    485000   1.0047492      18.455948      159.81132    
    486000   0.98470155     18.946876      159.7064     
    487000   0.98824533     18.966978      159.26529    
    488000   1.0089825      19.097171      158.97925    
    489000   0.97778429     19.060101      158.81474    
    490000   0.97218742     18.889218      158.8193     
    491000   1.0045176      19.312867      158.76135    
    492000   0.96691533     19.132844      158.52603    
    493000   1.0112251      18.959445      158.58528    
    494000   1.0088598      18.901088      158.7426     
    495000   0.97154139     18.82682       158.76458    
    496000   0.99535621     18.923968      158.44188    
    497000   1.0031323      18.742831      158.63729    
    498000   1.0051427      18.952482      158.785      
    499000   0.97878328     18.676106      158.69426    
    500000   0.97905992     18.938314      158.52094    
    501000   0.97814497     18.483061      158.39585    
    502000   1.0208044      18.710153      158.27377    
    503000   0.96369088     19.063707      158.05945    
    504000   1.0219516      19.353901      158.18133    
    505000   0.99600375     19.296858      158.10556    
    506000   1.0083393      17.770275      157.89373    
    507000   0.99071872     18.666286      157.77639    
    508000   0.97157322     18.662428      157.87972    
    509000   1.003453       18.695727      157.76553    
    510000   0.9997155      19.125977      157.64277    
    511000   1.0574187      18.493371      157.66225    
    512000   0.9988986      18.981177      157.52896    
    513000   1.0004253      18.539042      157.60792    
    514000   0.98986845     19.092933      157.26562    
    515000   1.0169615      18.738504      157.20647    
    516000   0.9583365      18.538993      157.21127    
    517000   0.97024932     18.61412       156.98279    
    518000   1.0208066      18.432034      156.74445    
    519000   1.0580034      18.906749      156.91425    
    520000   0.99760124     18.774356      156.73676    
    521000   0.99713931     19.349692      156.83837    
    522000   0.99914712     19.122777      156.54138    
    523000   1.0018376      18.772511      156.48228    
    524000   0.99964176     18.989334      156.50851    
    525000   0.95467369     18.62822       156.22556    
    526000   1.0696643      18.930963      156.45585    
    527000   0.98278483     19.074826      156.14603    
    528000   0.99251219     18.774405      155.79799    
    529000   1.0205735      18.748646      155.67586    
    530000   0.96273271     19.084557      155.54596    
    531000   1.0090258      18.735599      155.84882    
    532000   0.99567054     18.632921      155.75986    
    533000   1.0083091      19.086939      155.47994    
    534000   0.94803937     18.726093      155.43014    
    535000   1.0228243      18.644556      155.42077    
    536000   0.99616568     18.966453      155.3565     
    537000   0.97711651     18.810191      155.19488    
    538000   1.0129112      19.337992      155.13856    
    539000   1.045898       18.645267      154.91799    
    540000   1.0065514      18.318415      154.93428    
    541000   0.96366773     18.464973      154.69807    
    542000   1.0115201      18.462837      154.60744    
    543000   0.9918369      18.947586      154.23105    
    544000   1.0188806      18.401866      154.02151    
    545000   1.0003585      19.102084      153.85369    
    546000   1.0315873      18.734538      153.67556    
    547000   0.99409587     18.518185      153.70095    
    548000   0.9260597      18.531572      153.50099    
    549000   0.99168417     19.045707      153.16729    
    550000   1.018421       18.653069      153.19929    
    551000   1.0484757      18.44419       153.05888    
    552000   1.0386916      18.64339       152.80183    
    553000   1.0147173      18.710943      152.72162    
    554000   1.0034655      18.614156      152.64233    
    555000   0.97197746     18.999381      152.27586    
    556000   1.0362271      18.662762      152.40654    
    557000   0.96434086     18.711572      152.34876    
    558000   1.0139247      18.488504      152.16293    
    559000   0.95374658     19.342491      152.21085    
    560000   1.003968       18.967627      152.15978    
    561000   0.99066957     18.847015      152.22103    
    562000   1.0011829      18.563609      152.19667    
    563000   0.98335085     18.299441      152.14495    
    564000   0.99587621     19.398522      152.18366    
    565000   0.97773779     18.53315       151.85302    
    566000   1.0241912      18.680209      151.78818    
    567000   0.97324109     18.279895      151.55263    
    568000   0.9677929      18.092402      151.38388    
    569000   0.99266293     18.595881      151.15609    
    570000   1.0453821      18.420642      150.97666    
    571000   1.0227286      18.878895      150.78335    
    572000   1.0516765      19.011557      150.50646    
    573000   0.9726879      18.560874      150.46128    
    574000   1.0311677      19.107344      150.20422    
    575000   1.0128525      18.870113      150.34482    
    576000   1.002658       18.626988      150.29492    
    577000   0.98065123     18.88535       150.33717    
    578000   1.0020417      18.625028      150.22826    
    579000   0.95900777     19.203056      150.0777     
    580000   0.99669423     18.639354      150.05036    
    581000   0.98428648     18.397968      150.02675    
    582000   1.0103797      18.946163      150.12022    
    583000   0.97157789     18.844787      150.03002    
    584000   0.98772134     18.975777      149.95924    
    585000   1.0167829      18.828231      149.80386    
    586000   1.0065482      18.480801      149.437      
    587000   1.0380116      18.582771      149.30336    
    588000   0.9434633      18.699723      149.31031    
    589000   0.96077522     18.725499      149.19776    
    590000   0.99180827     18.191756      149.20327    
    591000   1.0071818      18.712402      149.38482    
    592000   0.96948091     18.876027      149.32258    
    593000   0.97008461     18.684286      149.4262     
    594000   1.0210238      19.113209      149.31712    
    595000   0.93292608     18.729417      149.23574    
    596000   1.0044587      18.781833      148.97569    
    597000   0.97713869     18.303276      148.89901    
    598000   0.9862443      18.588304      148.97227    
    599000   1.002295       18.649833      148.76329    
    600000   1.008359       18.763428      148.56472    
    601000   1.0037397      18.907437      148.39325    
    602000   0.99838164     18.801696      148.27259    
    603000   1.0164238      18.675349      148.33365    
    604000   1.0206099      18.871533      148.04988    
    605000   0.98450066     18.797286      147.93334    
    606000   1.0010907      19.128662      147.90496    
    607000   0.99057976     18.506108      147.837      
    608000   1.0064484      18.918857      147.9313     
    609000   0.99749039     18.27136       148.05951    
    610000   0.9920215      18.875196      147.88142    
    611000   0.96762366     17.863695      147.59272    
    612000   0.97166448     18.779095      147.34352    
    613000   1.0827371      18.8969        147.31957    
    614000   0.9806277      18.37425       146.97603    
    615000   1.018656       18.346973      146.84052    
    616000   0.99227069     18.800324      147.10604    
    617000   0.9991607      18.565118      146.81657    
    618000   0.97260244     18.255106      146.77537    
    619000   1.0336173      18.914842      146.89852    
    620000   0.98063106     18.271961      146.96286    
    621000   1.0093515      18.47896       146.99963    
    622000   1.0013832      17.85817       146.98717    
    623000   0.99089378     18.784534      146.70115    
    624000   0.98805987     19.122133      146.50889    
    625000   1.0360512      19.10719       146.63193    
    626000   0.97499926     18.84509       146.42896    
    627000   1.0331295      18.539948      146.37601    
    628000   0.9328912      18.481113      146.31618    
    629000   1.0413184      18.318225      146.28574    
    630000   0.99436574     18.221989      145.95841    
    631000   1.0092436      18.654057      145.74448    
    632000   0.9981954      18.478792      145.65812    
    633000   0.96875604     17.972648      145.49948    
    634000   0.99379097     18.061413      145.50524    
    635000   1.0229437      18.187697      145.18583    
    636000   0.99731683     18.313879      144.77872    
    637000   1.0174132      19.143998      144.55926    
    638000   1.0242741      19.012147      144.53368    
    639000   0.98720491     19.016502      144.52488    
    640000   1.0369852      18.143911      144.5711     
    641000   1.0004136      19.087901      144.66805    
    642000   1.0505292      18.161978      144.57219    
    643000   0.99266484     18.431193      144.66552    
    644000   0.99955216     18.187096      144.48947    
    645000   0.99361463     18.105449      144.29282    
    646000   0.98724299     18.765085      144.44082    
    647000   1.0036786      18.579864      143.96719    
    648000   0.99422659     18.9198        143.73056    
    649000   0.9962129      18.080095      143.75175    
    650000   0.9890991      18.154495      143.69872    
    651000   0.95850769     18.95282       143.39931    
    652000   1.0212313      18.954702      143.27566    
    653000   0.97987778     18.13275       143.00483    
    654000   1.0939882      18.740327      142.85747    
    655000   1.0810652      18.748175      142.54428    
    656000   1.0105206      18.345057      142.28481    
    657000   0.99816061     18.2508        142.20414    
    658000   0.99824419     18.552498      141.98377    
    659000   0.99225714     18.747679      141.871      
    660000   0.98063019     18.892715      141.68286    
    661000   1.0675539      19.053001      141.72343    
    662000   0.97012926     18.609275      141.61899    
    663000   0.99750468     18.660417      141.73886    
    664000   1.0505506      18.727442      141.62989    
    665000   1.0034397      18.728264      141.76348    
    666000   1.0363729      18.550097      141.53266    
    667000   0.99029011     18.207815      141.38955    
    668000   1.0070956      18.648008      141.26784    
    669000   1.0250585      18.122629      141.27115    
    670000   1.0008339      18.551135      141.14934    
    671000   0.97956056     18.250018      141.08971    
    672000   1.0023637      18.256764      140.94191    
    673000   1.0158098      18.151997      141.04734    
    674000   1.0247803      18.321969      140.97369    
    675000   0.99436514     18.498463      140.69501    
    676000   0.97239022     18.304159      140.75213    
    677000   0.97886921     18.912961      140.59563    
    678000   1.0169623      18.463183      140.40335    
    679000   0.9838111      17.939768      139.98579    
    680000   0.94837749     18.522645      139.75224    
    681000   1.0097755      18.703924      139.847      
    682000   0.9898312      18.450022      139.87619    
    683000   0.99204251     18.096626      139.85311    
    684000   1.000416       18.665282      139.79101    
    685000   1.0532461      18.412969      139.72014    
    686000   1.0035574      18.450111      139.52093    
    687000   1.0075459      18.510867      139.39084    
    688000   0.98308703     17.913417      139.25648    
    689000   1.0026413      18.779367      139.41144    
    690000   0.96903862     17.962798      139.23392    
    691000   1.0286706      18.4896        139.22041    
    692000   0.99173302     18.064591      139.38633    
    693000   0.97424457     19.001285      139.30977    
    694000   0.97626804     18.434692      139.13024    
    695000   0.96619989     18.05437       138.97007    
    696000   1.0100738      18.458508      138.97748    
    697000   1.0140889      18.402735      138.84931    
    698000   0.99314555     18.389322      138.83903    
    699000   1.0302442      18.427805      138.89737    
    700000   1.0064332      18.156426      138.88183    
    701000   0.96630028     18.502825      138.9534     
    702000   0.97757515     19.236576      138.98254    
    703000   0.98209046     18.356259      139.1014     
    704000   1.0363838      18.255666      139.09091    
    705000   0.95431634     18.292127      139.05365    
    706000   0.97697919     18.596126      139.01464    
    707000   0.98981622     18.506176      138.9233     
    708000   1.035735       19.001464      138.7394     
    709000   1.0005223      18.531484      138.66729    
    710000   1.0313031      18.67325       138.70228    
    711000   1.0032058      18.459645      138.71997    
    712000   0.99660717     18.561747      138.78937    
    713000   1.0018805      18.723166      138.68247    
    714000   1.0037793      18.885975      138.53049    
    715000   1.0180065      18.111922      138.18287    
    716000   0.97230772     18.190036      138.27803    
    717000   0.97343865     18.234094      138.25177    
    718000   0.99969836     18.464059      138.32111    
    719000   0.98446597     18.227819      138.43997    
    720000   1.0272383      18.173888      138.38556    
    721000   0.98370514     18.221026      138.46067    
    722000   1.0432011      18.620478      138.5465     
    723000   0.99799791     18.415918      138.40862    
    724000   0.99028452     18.484262      138.23949    
    725000   0.99976338     18.492811      138.28507    
    726000   1.0333167      18.708507      138.31957    
    727000   1.0072896      18.600992      138.18597    
    728000   0.99327997     18.739837      138.1181     
    729000   0.99225373     18.212092      137.73944    
    730000   0.97473192     18.472966      137.79758    
    731000   1.0129126      18.317127      137.71851    
    732000   1.0062059      18.336176      137.64537    
    733000   0.98890282     18.663354      137.54192    
    734000   0.94519778     18.166371      137.61059    
    735000   0.98896533     18.212097      137.41956    
    736000   1.0192058      18.565655      137.44092    
    737000   1.0106693      18.549317      137.30819    
    738000   0.98435919     18.819298      137.17938    
    739000   0.97342118     18.657308      137.06505    
    740000   0.95821355     18.184082      136.91353    
    741000   0.98019251     18.764646      136.66237    
    742000   1.0192021      18.943225      136.65162    
    743000   0.9767574      19.201323      136.68926    
    744000   1.0047062      18.428679      136.73772    
    745000   1.0026845      18.29454       136.53699    
    746000   0.9939734      18.816979      136.71584    
    747000   0.96662023     18.80543       136.57823    
    748000   1.003358       18.436902      136.56213    
    749000   1.0507849      18.73171       136.59581    
    750000   0.96495774     18.60216       136.72979    
    751000   0.99211444     18.397742      136.70744    
    752000   0.99423719     18.686891      136.69636    
    753000   0.97985751     18.663671      136.66165    
    754000   0.95173222     18.131708      136.57587    
    755000   0.99584063     18.879024      136.55754    
    756000   0.98358332     18.593266      136.37455    
    757000   0.98990364     18.636135      136.20983    
    758000   0.97685093     18.406136      136.14606    
    759000   0.97398619     18.617726      136.03601    
    760000   1.0025045      18.180909      136.11757    
    761000   1.005079       18.320054      135.95037    
    762000   1.0362047      18.750072      135.85301    
    763000   0.9558608      18.891289      135.85355    
    764000   0.95662796     18.936094      136.11169    
    765000   0.98925267     18.731893      136.29886    
    766000   1.0238451      18.865652      136.3192     
    767000   1.0183291      18.159765      136.34639    
    768000   1.0050961      18.416691      136.20365    
    769000   0.9935587      18.718875      135.87753    
    770000   1.0198         18.359837      135.60182    
    771000   0.97778089     18.876548      135.58811    
    772000   0.99829376     18.50788       135.54568    
    773000   1.0161156      18.629659      135.35703    
    774000   1.0074019      19.260136      135.26786    
    775000   0.98588818     18.610256      135.13692    
    776000   1.0054299      18.07903       134.96501    
    777000   0.99027417     18.519563      134.85686    
    778000   0.98409678     18.388486      134.97449    
    779000   0.98648323     18.519861      134.89102    
    780000   1.0174189      18.417575      134.58831    
    781000   1.0085194      18.438042      134.49604    
    782000   0.96530566     18.946314      134.36401    
    783000   1.0008661      18.516959      134.39311    
    784000   1.00287        18.306859      134.33494    
    785000   1.0167912      18.908249      134.31489    
    786000   0.99737627     18.605464      134.13178    
    787000   0.9961174      18.834585      134.1126     
    788000   0.99289756     18.727087      134.14812    
    789000   0.96053451     18.059026      134.04533    
    790000   1.0128199      18.59314       133.85975    
    791000   0.96865249     19.12461       133.81838    
    792000   0.92425287     18.192875      133.66599    
    793000   1.0150432      18.715672      133.71054    
    794000   1.0019857      18.863304      133.64435    
    795000   1.0131538      18.350725      133.65584    
    796000   1.0097985      18.10526       133.21692    
    797000   1.0187934      18.800756      133.00026    
    798000   0.9821657      18.962589      132.8093     
    799000   1.0239986      18.371257      132.89575    
    800000   1.022484       18.24961       132.8328     
    801000   0.98558504     18.721475      132.79975    
    802000   1.0228395      18.46346       132.79911    
    803000   1.0118492      18.327587      132.66957    
    804000   1.0484281      18.290198      132.52438    
    805000   1.0014512      18.643951      132.65431    
    806000   1.0238905      19.061793      132.41412    
    807000   0.95366392     18.477525      132.21216    
    808000   0.9779449      18.700151      132.02743    
    809000   0.95946178     18.049178      131.83811    
    810000   0.97726687     18.02618       131.6622     
    811000   0.98937268     18.591208      131.40464    
    812000   1.0367586      18.394008      131.37371    
    813000   1.0621255      18.684995      131.4406     
    814000   0.99004923     18.805608      131.5311     
    815000   0.97880327     18.37079       131.57646    
    816000   0.98151935     18.758395      131.68029    
    817000   1.0006842      18.743982      131.42312    
    818000   0.96571881     18.304058      131.35486    
    819000   1.0329884      18.237186      131.18251    
    820000   0.95346979     18.316645      131.00724    
    821000   1.0174295      18.096799      130.85337    
    822000   1.0529753      18.602464      130.87539    
    823000   1.0502243      18.866467      130.71348    
    824000   0.99641848     18.523142      130.92136    
    825000   0.99154428     18.270852      130.58527    
    826000   1.0174317      18.251148      130.44568    
    827000   1.011807       17.845572      130.24197    
    828000   1.0291924      18.688485      130.22873    
    829000   1.0439116      18.117808      129.99747    
    830000   0.98741447     18.563351      130.04373    
    831000   0.95634497     18.346804      129.8505     
    832000   1.0556149      19.112808      129.54087    
    833000   0.95253257     18.059568      129.50427    
    834000   0.99388231     18.163695      129.45578    
    835000   0.99940901     18.631018      129.51367    
    836000   0.98241913     19.05207       129.52433    
    837000   1.0262988      18.314441      129.58069    
    838000   1.0031627      18.660676      129.50622    
    839000   1.0128259      18.129106      129.47251    
    840000   1.011489       17.951367      129.3716     
    841000   1.0135551      18.903512      129.37234    
    842000   1.0519181      18.492668      129.2836     
    843000   1.0576506      18.016109      128.87862    
    844000   0.97177037     18.642739      128.79988    
    845000   1.0155431      18.480328      128.56621    
    846000   1.0492434      18.547394      128.41495    
    847000   1.04941        19.225717      128.32969    
    848000   0.98138504     18.585449      128.36367    
    849000   1.0126348      18.794217      128.44077    
    850000   1.0156942      18.843953      128.35584    
    851000   0.96805706     17.93395       128.19887    
    852000   0.99502857     18.458701      128.05205    
    853000   0.98793392     18.211468      127.79935    
    854000   1.0124804      18.784536      127.83724    
    855000   0.95682244     17.747588      127.68118    
    856000   0.98661876     18.721933      127.51098    
    857000   1.0374702      18.464806      127.36399    
    858000   1.013086       18.168165      127.58138    
    859000   0.98964943     18.577549      127.46513    
    860000   1.0141447      18.721813      127.43767    
    861000   0.9979844      17.916616      127.09071    
    862000   1.0155383      18.542174      126.94295    
    863000   1.0086357      17.904455      126.98222    
    864000   0.99763033     17.831286      126.65174    
    865000   0.97081189     18.930249      126.93531    
    866000   1.0360694      18.003302      127.0118     
    867000   1.0498536      18.839609      126.95935    
    868000   1.0192323      18.578453      126.77814    
    869000   1.0222827      18.386478      126.46427    
    870000   1.0434165      18.49676       126.15415    
    871000   1.0060378      18.470235      126.13872    
    872000   1.0258714      18.608221      125.97059    
    873000   1.0150043      18.44826       125.81716    
    874000   1.0263142      19.050407      125.56449    
    875000   0.97654176     18.372458      125.16203    
    876000   0.98355272     18.232927      125.22901    
    877000   0.94526376     18.41705       125.27302    
    878000   1.0041207      18.024253      124.96742    
    879000   1.0130543      17.982387      124.74224    
    880000   1.0116049      18.312228      124.49916    
    881000   1.0037524      18.200354      124.41472    
    882000   0.9767951      17.891713      124.06233    
    883000   0.97643719     18.613138      123.97586    
    884000   1.0466952      18.728317      124.00897    
    885000   1.0106134      18.279409      123.88       
    886000   1.0390907      18.742426      123.87574    
    887000   1.0101831      18.639131      123.85955    
    888000   0.99385254     18.510931      123.88162    
    889000   0.99880821     18.683651      123.67978    
    890000   0.97435414     18.001791      123.53576    
    891000   0.98537309     18.11356       123.37805    
    892000   0.99350375     18.08881       123.36839    
    893000   0.99596117     18.221484      123.37058    
    894000   0.99440978     17.738565      123.34085    
    895000   0.96388512     18.27242       123.39383    
    896000   1.0166829      18.249075      123.3592     
    897000   0.98076133     18.018892      123.14242    
    898000   1.0125953      18.467002      123.24794    
    899000   0.99782037     18.127242      123.21376    
    900000   0.97211439     18.246817      123.24071    
    901000   1.0216197      18.208211      122.85518    
    902000   0.98726421     18.658704      122.7209     
    903000   0.97275151     18.254206      122.54058    
    904000   1.0270683      17.805108      122.45578    
    905000   0.9808646      17.726387      122.26732    
    906000   0.99768294     18.295337      122.20092    
    907000   1.0294883      18.416043      121.86897    
    908000   0.98274982     18.447603      121.85906    
    909000   0.96363831     18.019731      121.85453    
    910000   0.99524296     18.407546      121.84296    
    911000   0.98834646     18.467599      121.9492     
    912000   1.0081773      18.106932      122.02999    
    913000   1.0551165      18.74886       122.018      
    914000   1.00063        19.040794      122.12251    
    915000   0.99049791     18.258076      121.87457    
    916000   1.0187505      18.957223      121.64901    
    917000   1.0084634      17.559237      121.49528    
    918000   1.0277223      17.99593       121.31042    
    919000   1.0141999      18.250559      121.00998    
    920000   1.0073577      17.973174      120.87792    
    921000   1.0022272      18.58016       120.93507    
    922000   0.94764517     18.37498       121.04616    
    923000   1.0254094      18.211948      121.03806    
    924000   0.95927016     18.397747      121.12106    
    925000   0.96785071     18.161657      120.97715    
    926000   0.99579007     17.751919      121.02839    
    927000   1.0116144      18.641346      121.02108    
    928000   0.93435333     18.024523      120.7651     
    929000   1.0408071      18.321028      120.78359    
    930000   1.033943       18.536269      120.84599    
    931000   1.0397209      18.307132      120.81678    
    932000   0.98968858     18.205932      120.59621    
    933000   1.0118742      18.072498      120.60205    
    934000   0.97049237     18.364319      120.64317    
    935000   0.96541459     18.447249      120.94307    
    936000   1.037287       17.898274      120.89749    
    937000   0.98323552     17.735489      120.94444    
    938000   1.0444229      18.145495      120.72758    
    939000   0.97152592     18.070095      120.75658    
    940000   1.0353268      18.191937      120.72527    
    941000   0.99923456     17.808875      120.9801     
    942000   1.0045345      17.770895      120.65455    
    943000   0.97928569     18.745967      120.75531    
    944000   0.97095724     18.023772      120.6683     
    945000   0.99428821     18.295522      120.56837    
    946000   0.99739903     18.719047      120.395      
    947000   0.99857659     19.084741      120.40626    
    948000   0.99263942     18.398891      120.17421    
    949000   1.0134739      17.512965      119.76847    
    950000   0.99746785     18.551723      119.88608    
    951000   1.000236       18.477086      119.67449    
    952000   0.99015961     17.91305       119.7118     
    953000   0.97557095     18.102858      119.87899    
    954000   0.98383624     17.706661      119.99056    
    955000   0.98754166     17.962336      119.86869    
    956000   1.0062278      18.583672      119.71366    
    957000   1.0217889      18.423201      119.54876    
    958000   1.0292145      18.657113      119.65712    
    959000   1.0430696      18.296062      119.79036    
    960000   1.009447       19.025805      119.91002    
    961000   0.959033       18.66386       120.0693     
    962000   1.0123371      17.877921      120.03535    
    963000   1.0131682      18.757733      120.15088    
    964000   0.97321025     17.987443      119.94171    
    965000   1.000121       18.190856      119.96033    
    966000   1.0138827      18.186632      119.73984    
    967000   1.0129692      18.291545      119.69482    
    968000   1.0085813      18.332271      119.37049    
    969000   1.0064782      18.509754      119.33419    
    970000   1.0337262      18.190252      119.27917    
    971000   1.0310929      18.125638      119.23896    
    972000   0.96039335     18.608231      118.99728    
    973000   0.93772451     18.032545      119.01271    
    974000   1.0080053      18.127219      118.81621    
    975000   1.0021333      18.129343      118.93725    
    976000   1.0229889      18.488515      118.89572    
    977000   1.0454931      17.849133      118.79294    
    978000   1.0060181      18.677744      118.65916    
    979000   0.95662968     18.668263      118.43221    
    980000   1.0147112      18.179395      118.50746    
    981000   1.0292035      17.838071      118.62819    
    982000   0.9937136      18.037296      118.72676    
    983000   0.99078597     18.55812       118.59799    
    984000   0.9997153      18.353354      118.57946    
    985000   1.022036       18.208604      118.56603    
    986000   1.0103729      17.934201      118.91104    
    987000   1.0281372      18.579001      118.87429    
    988000   0.95991789     18.759629      118.74978    
    989000   0.96895191     17.780661      118.65027    
    990000   0.99758922     17.991281      118.64801    
    991000   0.96879043     17.871974      118.47681    
    992000   1.0451071      18.891065      118.2599     
    993000   1.0713598      18.503647      118.143      
    994000   1.0255532      18.394601      117.98475    
    995000   0.99116722     18.296658      118.15547    
    996000   0.9678213      17.635293      117.93418    
    997000   0.97003432     18.362845      117.75503    
    998000   1.0107649      18.937389      117.7335     
    999000   1.0085607      18.154652      117.661      
   1000000   0.97849619     17.964477      117.70055    
   1001000   1.0171145      18.213332      117.6817     
   1002000   1.0054796      18.236733      117.55802    
   1003000   0.99221116     18.27453       117.43617    
   1004000   1.0067411      18.517845      117.21368    
   1005000   0.99337103     18.340971      117.07203    
   1006000   0.98200918     18.593413      117.10849    
   1007000   0.98183108     18.281143      116.99551    
   1008000   0.96289151     17.507818      116.83079    
   1009000   0.98652511     17.76293       116.67922    
   1010000   0.95690877     18.082056      116.59859    
   1011000   1.0096745      18.376152      116.26901    
   1012000   1.0069483      18.318059      116.2759     
   1013000   0.98499623     17.827738      116.18726    
   1014000   0.97298705     18.13824       115.95853    
   1015000   0.98074756     18.349121      116.21658    
   1016000   1.0147182      18.132817      116.15398    
   1017000   0.97770219     18.369529      115.82404    
   1018000   0.99634593     18.315944      116.07133    
   1019000   0.99908783     18.763556      116.09383    
   1020000   0.9670446      18.790301      116.20004    
   1021000   0.98721087     18.901468      116.30081    
   1022000   1.0072981      17.836066      115.96624    
   1023000   0.94330359     17.772694      115.82142    
   1024000   0.98982014     18.075037      115.77163    
   1025000   1.0539615      18.566402      115.70566    
   1026000   1.0358984      18.835383      115.45183    
   1027000   0.98389061     18.815191      115.53339    
   1028000   0.97208492     17.851874      115.46852    
   1029000   0.97658288     18.652173      115.63395    
   1030000   0.97421542     18.087722      115.53845    
   1031000   1.0317525      18.371959      115.3307     
   1032000   0.98669785     18.005312      115.14553    
   1033000   1.0166545      18.202356      114.93245    
   1034000   1.0070075      18.490936      114.94015    
   1035000   1.023072       18.705551      114.78031    
   1036000   1.0143159      18.008424      114.71005    
   1037000   0.97201066     17.801984      114.63117    
   1038000   0.9877162      17.973839      114.55551    
   1039000   1.0236518      18.276699      114.71344    
   1040000   0.97879651     17.900682      114.47748    
   1041000   1.005669       18.158821      114.33122    
   1042000   0.98021582     18.248463      114.30073    
   1043000   0.96057408     18.280159      114.36939    
   1044000   1.0361858      18.35679       114.19745    
   1045000   0.97857889     18.144455      114.28332    
   1046000   0.998288       18.348129      114.20612    
   1047000   1.0011483      18.354321      114.08566    
   1048000   0.9913225      18.100551      113.95477    
   1049000   0.98915139     18.24788       113.97877    
   1050000   0.98272012     17.930628      113.87577    
   1051000   1.0152443      18.907869      113.70203    
   1052000   0.99749481     18.504221      113.42246    
   1053000   0.99118379     18.206683      113.4197     
   1054000   1.0412572      18.142051      113.42637    
   1055000   1.0352749      18.199293      113.35548    
   1056000   0.9856575      17.901622      112.98744    
   1057000   0.98297777     18.27693       112.82602    
   1058000   1.0196072      17.896879      112.56195    
   1059000   1.0331354      18.536111      112.60046    
   1060000   0.99849169     17.962669      112.67328    
   1061000   0.98700227     18.505767      112.59715    
   1062000   0.9861108      18.563015      112.49996    
   1063000   0.97736712     18.225994      112.31025    
   1064000   0.95802521     18.062748      112.3922     
   1065000   0.97962218     17.703303      112.44387    
   1066000   0.97973241     18.798976      112.29343    
   1067000   0.99569156     17.837691      112.30196    
   1068000   1.0101689      17.943846      112.07876    
   1069000   0.94969984     17.695397      112.1084     
   1070000   0.97398283     18.942557      112.11302    
   1071000   1.0410677      18.385233      111.68123    
   1072000   0.97766488     18.400281      111.6422     
   1073000   1.0054637      18.494214      111.64496    
   1074000   1.0219814      18.669026      111.40217    
   1075000   0.99552473     18.450015      111.20231    
   1076000   1.0050789      18.380006      111.11883    
   1077000   0.98043915     18.620443      110.98179    
   1078000   0.96083707     18.396721      110.70309    
   1079000   1.0102302      18.177381      110.64633    
   1080000   1.0095074      18.391709      110.43997    
   1081000   0.96431985     17.996702      110.71298    
   1082000   0.95624096     18.34982       110.80228    
   1083000   0.98241744     18.118238      110.90034    
   1084000   1.0209621      18.372614      111.09612    
   1085000   0.99046087     18.230035      111.11598    
   1086000   1.0296856      18.806474      110.88952    
   1087000   0.99678863     18.616281      110.83335    
   1088000   0.99339794     18.339192      110.8134     
   1089000   0.97549132     17.99186       110.70329    
   1090000   0.95649892     18.304415      110.87736    
   1091000   1.018226       18.050925      110.91941    
   1092000   1.0037812      18.022555      110.61483    
   1093000   0.97898564     18.003982      110.5859     
   1094000   0.96730988     18.216021      110.68548    
   1095000   0.97209291     18.403536      110.61621    
   1096000   0.99840007     17.936637      110.66105    
   1097000   1.0065187      18.257762      110.40706    
   1098000   0.99356499     18.505137      110.29128    
   1099000   1.003238       17.948372      110.24626    
   1100000   0.99382953     18.03983       110.54777    
   1101000   1.0093693      18.520875      110.49217    
   1102000   0.98475139     18.325318      110.41916    
   1103000   1.001247       17.646788      110.39634    
   1104000   0.99464512     17.965846      110.32119    
   1105000   1.0309822      18.289912      109.86481    
   1106000   1.0184489      17.782093      109.77154    
   1107000   0.95929207     17.811799      109.56774    
   1108000   0.98259287     17.53031       109.56779    
   1109000   1.0078817      17.790074      109.42796    
   1110000   0.97837513     17.811732      109.63771    
   1111000   1.0038789      18.839867      109.51485    
   1112000   1.0185317      18.194319      109.53821    
   1113000   1.0234292      18.190615      109.53256    
   1114000   1.0305271      18.023508      109.32169    
   1115000   1.0000357      18.085228      109.34352    
   1116000   0.98602074     17.944866      109.2836     
   1117000   0.95863511     18.521755      109.26589    
   1118000   0.9754067      17.959536      108.96931    
   1119000   0.98363321     17.985807      108.68598    
   1120000   0.99354324     18.013876      108.40592    
   1121000   0.97893504     18.520507      108.4159     
   1122000   1.0189765      18.425679      108.33837    
   1123000   1.0115352      18.226043      108.15342    
   1124000   0.95337892     17.90677       108.02658    
   1125000   0.99155495     18.373932      108.14586    
   1126000   1.0129269      18.239417      107.94602    
   1127000   0.99590624     18.385801      107.65246    
   1128000   1.0074228      18.173092      107.52919    
   1129000   0.96772521     18.238255      107.63955    
   1130000   1.0428744      18.185241      107.49765    
   1131000   0.98120408     18.14748       107.65877    
   1132000   0.97634045     18.237154      107.44144    
   1133000   1.0116627      18.619851      107.29648    
   1134000   1.0067943      17.991332      107.00734    
   1135000   1.0010553      18.062591      106.72929    
   1136000   0.97513481     18.33827       106.71042    
   1137000   0.97533035     17.995998      106.44668    
   1138000   1.0156877      18.782023      106.48409    
   1139000   1.0053354      18.181767      106.26138    
   1140000   1.0017361      18.004727      106.12911    
   1141000   0.99292772     18.202995      106.07567    
   1142000   1.0257284      18.434409      105.92611    
   1143000   0.96072412     17.547394      106.03605    
   1144000   0.99186043     18.162181      105.83188    
   1145000   1.0133886      18.501657      105.54396    
   1146000   1.0132058      18.127064      105.42797    
   1147000   1.0104266      17.945141      105.24192    
   1148000   1.00463        18.231453      105.11424    
   1149000   1.0006667      18.157559      105.13724    
   1150000   1.0388917      18.138146      104.91887    
   1151000   0.97498514     17.667809      104.8341     
   1152000   1.0172194      18.231306      104.82237    
   1153000   1.0295625      18.55889       104.58459    
   1154000   1.0139485      18.019234      104.4364     
   1155000   1.0069803      18.040585      104.55129    
   1156000   0.97697172     18.537963      104.65066    
   1157000   0.97239395     18.282578      104.477      
   1158000   0.97970202     17.838631      104.21217    
   1159000   0.97696697     18.510179      103.97177    
   1160000   0.96204647     18.485663      103.7636     
   1161000   1.035865       18.4096        103.68809    
   1162000   1.0346128      18.920124      103.71492    
   1163000   0.94157141     18.957117      103.49027    
   1164000   0.99854456     17.512357      103.53039    
   1165000   0.96910682     18.2225        103.50365    
   1166000   1.0454625      18.347851      103.60695    
   1167000   1.0485252      18.548481      103.45181    
   1168000   0.98630966     17.70232       103.12352    
   1169000   1.0337434      17.60571       103.0455     
   1170000   1.0000204      18.136052      103.09221    
   1171000   1.0290168      18.306706      103.09039    
   1172000   1.0074919      18.16702       102.87674    
   1173000   1.0039929      18.194373      102.64157    
   1174000   1.0136711      18.744156      102.49993    
   1175000   1.0410171      18.473646      102.35028    
   1176000   0.97593278     17.491112      102.53884    
   1177000   0.97619278     17.76686       102.51725    
   1178000   1.0036617      17.843045      102.42088    
   1179000   1.0583444      18.59085       102.03201    
   1180000   1.0408392      18.339226      102.25979    
   1181000   0.97397681     17.730444      102.42838    
   1182000   1.0117111      18.440601      102.28985    
   1183000   0.99347516     18.117671      102.08781    
   1184000   0.99694097     17.812243      101.88089    
   1185000   0.94042495     18.121966      101.64751    
   1186000   1.0365031      17.776937      101.73102    
   1187000   1.0119499      18.481852      101.94858    
   1188000   1.0190397      18.804244      101.74347    
   1189000   1.0066216      18.019417      101.6667     
   1190000   1.0030505      17.919857      101.55627    
   1191000   0.96111526     18.059332      101.32233    
   1192000   1.026241       17.72724       101.4321     
   1193000   0.99357935     17.854143      101.20232    
   1194000   0.96734094     17.782989      101.02267    
   1195000   0.99347666     18.041727      100.97784    
   1196000   1.0160463      17.998965      101.05853    
   1197000   1.0046195      18.238382      100.89589    
   1198000   0.9963913      18.188066      100.80482    
   1199000   0.97285551     17.923341      100.50797    
   1200000   1.0214386      18.153628      100.46376    
   1201000   1.0211026      18.028258      100.28803    
   1202000   1.0310686      17.884451      100.17773    
   1203000   0.95847722     18.233249      100.06093    
   1204000   0.98451683     17.784565      99.869437    
   1205000   1.0289723      18.325145      99.4288      
   1206000   1.003293       18.349241      99.223656    
   1207000   1.0299912      17.995738      99.295627    
   1208000   0.97795784     18.042904      99.091752    
   1209000   1.0341729      17.559994      98.948581    
   1210000   1.0615693      18.164438      98.960967    
   1211000   1.0108416      18.383817      98.75921     
   1212000   0.9754595      18.029331      98.881246    
   1213000   1.0306588      17.728618      98.739756    
   1214000   0.94810331     18.327924      98.693779    
   1215000   1.0259022      18.208711      98.790395    
   1216000   1.0861612      18.050626      98.786614    
   1217000   0.96545094     17.68478       98.65915     
   1218000   0.98534713     18.018881      98.660085    
   1219000   0.991998       18.251011      98.533085    
   1220000   0.97191684     17.97324       98.538657    
   1221000   0.99851785     18.178887      98.302316    
   1222000   0.97425215     17.535546      98.100966    
   1223000   1.0368636      17.825975      98.057264    
   1224000   0.97297023     18.032123      97.92364     
   1225000   1.0178656      18.314013      97.929632    
   1226000   1.0093897      17.993622      97.95399     
   1227000   0.98931435     18.00626       97.812559    
   1228000   1.0092349      17.919296      97.819777    
   1229000   1.0076783      18.195722      97.824853    
   1230000   0.99061497     18.048919      97.874886    
   1231000   0.98853308     17.8068        97.75377     
   1232000   0.96408985     18.320455      97.716468    
   1233000   1.0226496      17.822611      97.839752    
   1234000   1.0262846      18.089461      97.842631    
   1235000   0.99690287     18.20668       97.980654    
   1236000   1.0375247      18.690249      97.903464    
   1237000   0.966451       17.937188      97.666587    
   1238000   0.98751295     17.590034      97.490649    
   1239000   1.0045713      18.486071      97.455589    
   1240000   1.0164366      17.685664      97.391383    
   1241000   1.0041614      17.9343        97.409001    
   1242000   1.064793       17.784514      97.188501    
   1243000   0.97524311     17.878871      97.089789    
   1244000   1.0254869      17.924691      96.900253    
   1245000   1.0356493      17.907143      96.853372    
   1246000   1.0619742      18.034689      96.844907    
   1247000   1.0209054      17.395878      97.078464    
   1248000   0.99837839     17.718545      96.690323    
   1249000   1.0409111      18.239727      96.411585    
   1250000   0.95625866     17.846242      96.453867    
   1251000   1.0031358      18.040751      96.454146    
   1252000   0.99539468     18.047352      96.53647     
   1253000   0.95793446     17.696693      96.161236    
   1254000   0.97916572     17.488525      96.044195    
   1255000   1.0229648      18.400785      96.010185    
   1256000   1.0022287      17.997644      95.923391    
   1257000   0.93431014     17.87681       95.860509    
   1258000   1.0162766      18.157304      95.635536    
   1259000   0.98499096     17.332911      95.704444    
   1260000   1.0345821      18.057724      95.219965    
   1261000   1.061551       17.994346      94.943158    
   1262000   1.0050175      17.55409       94.881369    
   1263000   1.0202735      17.833014      94.711346    
   1264000   1.0108488      17.291422      94.596711    
[...]
   2053000   1.0050125      17.149874      29.538546    
   2054000   0.98854868     17.591936      29.411682    
   2055000   0.93627059     16.898798      29.187434    
   2056000   1.0428707      17.092723      29.193531    
   2057000   1.0380322      17.583536      29.194912    
   2058000   0.99934712     18.253623      29.473423    
   2059000   1.0078364      17.263708      29.281173    
   2060000   1.0012888      17.397626      29.269695    
   2061000   0.97412055     17.147098      29.272956    
   2062000   1.0070625      17.474365      29.116936    
   2063000   1.0264732      17.550504      28.774992    
   2064000   1.0273087      17.564467      28.69752     
   2065000   1.0169996      17.539817      28.592703    
   2066000   0.978355       16.863607      28.288225    
   2067000   1.026496       17.263899      27.957093    
   2068000   1.0361357      18.169242      28.022029    
   2069000   0.99776532     17.621257      27.852035    
   2070000   0.98234136     17.526871      27.668651    
   2071000   1.0326302      17.581714      27.619946    
   2072000   0.98683023     17.907591      27.397919    
   2073000   1.0356441      17.470023      27.366399    
   2074000   1.0106128      17.629253      27.475588    
   2075000   1.0100588      17.620774      27.446484    
   2076000   0.98193106     17.457809      27.525091    
   2077000   1.0194334      17.315591      27.320585    
   2078000   0.97144825     17.144077      27.242051    
   2079000   0.98047134     17.022976      27.06623     
   2080000   1.04138        17.58984       27.043651    
   2081000   1.0221694      17.929581      26.762177    
   2082000   1.0221518      17.632671      26.584622    
   2083000   1.067347       17.800218      26.515631    
   2084000   1.0236544      17.562556      26.300481    
   2085000   0.99730585     16.942287      26.359456    
   2086000   1.006811       17.295777      26.176143    
   2087000   1.0090293      17.375075      26.127151    
   2088000   0.95892946     17.200329      25.837541    
   2089000   1.0057627      17.376698      25.441519    
   2090000   0.95594735     17.094997      25.423864    
   2091000   1.0270833      17.218427      25.421306    
   2092000   1.019622       17.549057      25.620427    
   2093000   0.98141981     17.4996        25.611341    
   2094000   1.007166       17.874213      25.460415    
   2095000   0.98213883     16.890876      25.523853    
   2096000   0.97519306     16.789628      25.440739    
   2097000   1.0218219      17.13279       25.30539     
   2098000   1.004064       17.123679      25.197515    
   2099000   0.97695611     17.176056      25.159658    
   2100000   1.0175029      17.819607      24.962004    
   2101000   0.99836041     17.10567       24.806217    
   2102000   1.0201136      17.345131      24.783693    
   2103000   0.99039387     16.768247      24.912457    
   2104000   0.99176196     17.578812      24.735874    
   2105000   0.99879958     16.802063      24.607338    
   2106000   1.0100574      17.228366      24.764461    
   2107000   0.97705097     17.586964      24.997623    
   2108000   0.97590663     17.813135      24.845305    
   2109000   0.99412147     17.089931      24.87216     
   2110000   0.97286341     16.947126      24.624079    
   2111000   1.0164986      17.222293      24.50306     
   2112000   0.9889824      17.627263      24.419415    
   2113000   0.97188528     17.846534      24.425827    
   2114000   1.0252962      17.111099      24.284104    
   2115000   0.95982396     17.608384      24.271151    
   2116000   0.95873567     17.702155      23.989427    
   2117000   1.0079414      17.249751      23.919344    
   2118000   0.97044879     17.23745       23.868917    
   2119000   1.033688       17.149986      23.867457    
   2120000   0.99535013     17.302776      23.784028    
   2121000   0.97488557     16.811213      23.632376    
   2122000   0.98159012     17.365599      23.723463    
   2123000   1.0048436      17.607833      23.551682    
   2124000   0.99798966     17.404749      23.604749    
   2125000   1.0218319      17.664063      23.37424     
   2126000   1.0107937      17.008124      23.311947    
   2127000   1.0135638      17.521805      23.375102    
   2128000   0.96748242     16.969193      23.121889    
   2129000   1.006065       17.77966       23.042592    
   2130000   0.99973392     17.723686      22.900902    
   2131000   1.0029329      17.68266       22.649106    
   2132000   1.0190444      16.964181      22.433122    
   2133000   0.93035504     17.43916       22.311096    
   2134000   1.0284799      16.936694      22.188339    
   2135000   1.0071442      16.334276      22.168637    
   2136000   0.94700069     17.073646      21.90465     
   2137000   0.99997056     17.198089      21.725983    
   2138000   0.98612693     16.550051      21.590468    
   2139000   1.0005519      17.629697      21.490969    
   2140000   1.0542624      17.297322      21.484236    
   2141000   0.98682645     16.930058      21.384014    
   2142000   1.0338618      16.987807      21.309256    
   2143000   0.99675997     17.363564      21.275443    
   2144000   0.99305749     17.315669      21.214393    
   2145000   0.97200496     17.342446      21.147161    
   2146000   0.96418518     17.360233      21.265076    
   2147000   0.97919532     17.302038      21.29581     
   2148000   1.0081389      17.237472      21.217017    
   2149000   1.0373503      17.699179      21.043264    
   2150000   1.0088089      17.524785      20.961683    
   2151000   1.0333043      17.797708      20.611203    
   2152000   1.0396872      16.683087      20.393753    
   2153000   1.0127108      17.766377      20.288239    
   2154000   1.002638       17.666212      20.4051      
   2155000   1.0511926      17.340549      20.081231    
   2156000   0.97412602     16.521015      19.959406    
   2157000   1.0143326      16.750876      19.924316    
   2158000   1.0154331      17.803728      19.671516    
   2159000   0.98920887     17.517826      19.806896    
   2160000   1.0451763      17.376324      19.718884    
   2161000   1.0149387      17.41266       19.751391    
   2162000   1.0103194      17.293427      19.621379    
   2163000   1.0133776      17.216605      19.723337    
   2164000   0.95503829     16.934353      19.385688    
   2165000   0.99283133     16.817571      19.406452    
   2166000   0.99011129     17.623981      19.22074     
   2167000   0.97230802     17.146962      19.043203    
   2168000   1.0575112      17.263167      18.808438    
   2169000   1.015269       17.188664      18.871413    
   2170000   1.0272686      17.236537      18.685518    
   2171000   0.98258936     16.748457      18.485687    
   2172000   0.99470917     17.519477      18.391615    
   2173000   0.984178       17.666654      18.146799    
   2174000   1.0070052      16.787428      18.189089    
   2175000   1.0060019      17.245592      18.275662    
   2176000   1.0107576      17.075914      18.456767    
   2177000   0.9997458      17.116997      18.538839    
   2178000   1.071141       17.096176      18.448152    
   2179000   1.0029267      17.565469      18.622908    
   2180000   1.0181311      17.519951      18.353714    
   2181000   0.98747227     16.941521      18.565333    
   2182000   0.99897173     17.796927      18.691165    
   2183000   1.0350834      16.849962      18.570512    
   2184000   0.95539567     16.775658      18.429486    
   2185000   1.0093742      17.13742       18.374594    
   2186000   1.0243233      17.481006      18.440101    
   2187000   0.99856585     17.02576       18.465774    
   2188000   1.0135507      17.192471      18.423645    
   2189000   1.0120383      17.027146      18.267926    
   2190000   0.99680258     17.39174       18.381088    
   2191000   0.99153678     16.719472      18.458516    
   2192000   0.96837294     16.379294      18.233571    
   2193000   0.99748997     16.947647      18.333542    
   2194000   1.0164037      17.699863      18.400772    
   2195000   1.0103226      17.21923       18.388837    
   2196000   1.0213475      17.431293      18.443044    
   2197000   1.0036467      17.335344      18.086317    
   2198000   0.99797492     17.108327      18.006481    
   2199000   0.99905595     17.187837      17.848101    
   2200000   0.99085013     17.07646       17.904915    
   2201000   1.0080818      16.688815      17.923834    
   2202000   1.0609732      17.156496      17.85341     
   2203000   1.0166747      17.126185      17.825078    
   2204000   1.0225322      17.597444      17.863156    
   2205000   0.97550225     16.926069      17.546858    
   2206000   1.0875084      17.56902       17.397479    
   2207000   0.96039754     18.118079      17.321347    
   2208000   1.0006279      17.459308      17.22962     
   2209000   0.98632192     17.383196      17.163758    
   2210000   0.96797758     17.459657      17.28816     
   2211000   0.99264499     16.893515      17.215401    
   2212000   0.99808271     17.932278      17.115405    
   2213000   0.99925451     17.053422      17.010024    
   2214000   1.0223729      17.738016      16.822369    
   2215000   1.0357919      17.784522      16.650241    
   2216000   0.98922436     17.20248       16.460512    
   2217000   0.96470916     16.419296      16.317129    
   2218000   0.9790955      17.042619      16.224428    
   2219000   1.0038596      17.321017      15.875551    
   2220000   0.93662066     17.999301      16.009896    
   2221000   0.97188578     17.351218      15.937387    
   2222000   0.97831003     16.680626      15.936094    
   2223000   1.0074134      16.957233      15.873706    
   2224000   1.0105461      17.706281      15.86706     
   2225000   0.98039682     17.075953      15.722494    
   2226000   0.98682501     17.333283      15.438494    
   2227000   1.0419636      17.571756      15.498822    
   2228000   1.0166815      17.131378      15.548703    
   2229000   0.98480373     16.786184      15.478592    
   2230000   1.0086755      17.463254      15.493041    
   2231000   0.99366861     17.212627      15.28823     
   2232000   1.0049522      17.524005      15.146919    
   2233000   0.99381046     17.086154      14.972631    
   2234000   1.0011493      17.000343      14.872094    
   2235000   1.010471       16.564402      14.707657    
   2236000   0.94893303     17.204939      14.442603    
   2237000   1.0117419      17.331133      14.269622    
   2238000   0.98863737     16.906877      14.178845    
   2239000   0.9826501      17.195886      13.897498    
   2240000   0.95445771     17.060436      13.961536    
   2241000   1.0398291      17.554622      13.833044    
   2242000   0.98172905     16.931977      13.845765    
   2243000   0.97867166     17.226667      13.843855    
   2244000   1.0112025      16.931852      13.791852    
   2245000   0.98284603     16.55143       13.769481    
   2246000   1.0257604      17.517986      13.573517    
   2247000   0.96656674     17.022203      13.527347    
   2248000   1.0256253      16.685052      13.609375    
   2249000   1.0105442      17.697702      13.464752    
   2250000   0.98687258     17.440546      13.543796    
   2251000   0.98977138     17.531341      13.501215    
   2252000   1.0084829      17.256682      13.422781    
   2253000   0.98303686     17.55075       13.392587    
   2254000   0.98855932     16.819391      13.070025    
   2255000   1.0175504      17.109509      12.904554    
   2256000   0.97585333     16.547115      12.874938    
   2257000   1.0138225      17.017802      12.757597    
   2258000   0.96521575     17.091708      12.773306    
   2259000   1.0393634      17.144272      12.715374    
   2260000   1.0109906      17.294825      12.478858    
   2261000   0.96248445     16.909963      12.377163    
   2262000   1.028869       17.62417       12.18378     
   2263000   1.047048       17.179077      12.231982    
   2264000   1.0391611      17.034923      12.222453    
   2265000   1.0442403      17.584478      12.453634    
   2266000   1.0484762      17.884391      12.499078    
   2267000   1.0148879      17.540499      12.313615    
   2268000   1.0632946      16.773737      12.251182    
   2269000   1.0429906      17.154986      12.138066    
   2270000   0.97990495     16.692924      11.967161    
   2271000   1.0496453      17.188843      11.766844    
   2272000   1.0254931      17.013836      11.84262     
   2273000   1.002235       17.01328       11.732102    
   2274000   1.0146656      17.296835      11.828138    
   2275000   0.98413311     17.295457      11.581468    
   2276000   1.0005522      17.103055      11.476415    
   2277000   0.98382815     17.550105      11.434598    
   2278000   0.9863198      17.21194       11.319169    
   2279000   0.97180495     16.900606      11.439338    
   2280000   1.0053701      17.835221      11.608199    
   2281000   1.0124435      17.090655      11.508679    
   2282000   0.98690962     16.797137      11.43124     
   2283000   1.0500771      17.446066      11.421533    
   2284000   0.94383878     17.127596      11.284054    
   2285000   0.98225484     17.104107      11.189643    
   2286000   0.99709429     17.372267      11.215615    
   2287000   0.9705974      17.334478      11.113533    
   2288000   1.0469083      16.922066      10.824286    
   2289000   1.0007791      17.111464      10.810142    
   2290000   0.99020587     17.133562      11.015794    
   2291000   0.97022415     17.335305      10.918197    
   2292000   0.96223417     17.008505      10.901468    
   2293000   1.0411931      17.325306      11.14971     
   2294000   0.99668662     17.132409      11.301813    
   2295000   0.99073281     17.371327      11.454197    
   2296000   1.0313093      17.479775      11.385939    
   2297000   1.016599       17.26134       11.468296    
   2298000   1.0094197      17.871647      11.487783    
   2299000   0.98528754     17.744233      11.143602    
   2300000   0.95998965     17.375909      11.131834    
   2301000   0.9939354      17.257027      11.299225    
   2302000   0.97657255     17.502312      11.167847    
   2303000   1.0580481      17.269051      11.077587    
   2304000   1.0229173      17.27276       11.032505    
   2305000   0.92186936     17.056105      11.128299    
   2306000   0.95117738     16.694372      11.239004    
   2307000   0.99033488     17.016953      10.976571    
   2308000   0.99891045     17.603887      10.953609    
   2309000   0.99907663     17.667168      10.830179    
   2310000   1.0231007      17.835864      10.717795    
   2311000   0.94162397     17.524623      10.566011    
   2312000   1.018182       17.23789       10.406062    
   2313000   0.98312616     16.979327      10.341608    
   2314000   1.0108234      16.981719      10.309338    
   2315000   0.93894784     17.168544      10.360502    
   2316000   1.0019027      17.833603      10.296613    
   2317000   0.97807465     16.666741      10.27925     
   2318000   0.96859258     16.885918      10.120455    
   2319000   1.0031344      17.230358      10.037739    
   2320000   0.97319742     16.801913      9.9815301    
   2321000   1.0132494      17.496505      9.8406199    
   2322000   0.95511912     16.827421      9.6311068    
   2323000   0.94668086     17.321134      9.4291018    
   2324000   0.97988303     16.855617      9.4324369    
   2325000   1.0059301      17.449622      9.4721094    
   2326000   1.0330025      17.442807      9.3224827    
   2327000   0.98020771     17.160932      9.2756597    
   2328000   1.0247821      17.172508      9.3755714    
   2329000   0.97782923     17.521632      9.564405     
   2330000   1.0010931      17.080911      9.5332432    
   2331000   0.9326813      16.961261      9.3556288    
   2332000   1.0039137      17.447776      9.2481605    
   2333000   0.9902051      17.253847      9.4486069    
   2334000   0.9727567      16.753546      9.3759947    
   2335000   0.97842664     16.494437      9.4264177    
   2336000   1.0107898      17.284317      9.2921174    
   2337000   0.98916666     17.270643      9.3200596    
   2338000   1.029793       16.963537      9.2939267    
   2339000   1.0221817      17.274259      9.3608229    
   2340000   0.96520555     17.603766      9.1509562    
   2341000   0.99862921     17.628254      9.0458455    
   2342000   1.0042599      16.842179      8.9294112    
   2343000   0.9799156      16.857665      8.6119843    
   2344000   0.9773773      16.992987      8.454333     
   2345000   0.98829994     17.08081       8.3445578    
   2346000   0.97636642     17.695398      8.5089561    
   2347000   0.96654071     17.518082      8.4985242    
   2348000   1.0026347      17.54747       8.3635152    
   2349000   1.0167759      17.237483      8.2370804    
   2350000   0.95815361     16.887178      8.2013568    
   2351000   0.99534231     17.545287      8.1058161    
   2352000   0.99417655     17.253452      8.2045695    
   2353000   1.0090093      17.519506      7.9723102    
   2354000   0.98089671     17.377984      7.7737294    
   2355000   0.99730695     16.859718      7.6202637    
   2356000   0.98970781     17.116034      7.7174153    
   2357000   0.96717044     17.336039      7.3886443    
   2358000   1.0401707      17.186331      7.197343     
Fix halt condition for fix-id 3 met on step 2359000 with value 6.947096161021811 (src/fix_halt.cpp:237)
   2359000   1.0249864      16.461128      6.9470962    
Loop time of 2932.44 on 2 procs for 2259000 steps with 900 atoms

Performance: 665581.792 tau/day, 770.349 timesteps/s
121.5% CPU use with 1 MPI tasks x 2 OpenMP threads

MPI task timing breakdown:
Section |  min time  |  avg time  |  max time  |%varavg| %total
---------------------------------------------------------------
Pair    | 459.4      | 459.4      | 459.4      |   0.0 | 15.67
Bond    | 41.127     | 41.127     | 41.127     |   0.0 |  1.40
Neigh   | 2330.1     | 2330.1     | 2330.1     |   0.0 | 79.46
Comm    | 0.69935    | 0.69935    | 0.69935    |   0.0 |  0.02
Output  | 4.938      | 4.938      | 4.938      |   0.0 |  0.17
Modify  | 89.669     | 89.669     | 89.669     |   0.0 |  3.06
Other   |            | 6.521      |            |       |  0.22

Nlocal:            900 ave         900 max         900 min
Histogram: 1 0 0 0 0 0 0 0 0 0
Nghost:              0 ave           0 max           0 min
Histogram: 1 0 0 0 0 0 0 0 0 0
Neighs:         173992 ave      173992 max      173992 min
Histogram: 1 0 0 0 0 0 0 0 0 0

Total # of neighbors = 173992
Ave neighs/atom = 193.32444
Ave special neighs/atom = 1.9977778
Neighbor list builds = 21489
Dangerous builds = 0

# This simulation is done
# Move onto the next one
clear
  using 2 OpenMP thread(s) per MPI task
package omp 0
using multi-threaded neighbor list subroutines
next f
jump SELF

###
# Reference paper:
# K. Kremer and G. S. Grest
# Dynamics of entangled linear polymer melts: A molecular-dynamics simulation
# J Chem Phys 92, 5057 (1990)

##################################
# MIHIR: for branched polymers
# LJ minimum first to expand and explore, then collapse
###

###
# Looping through the various linear polymers to simulate,
# define variables to switch through
# variable f index bb100nuc0bl0bn0d30tot100 bb200nuc0bl0bn0d30tot200 bb300nuc0bl0bn0d30tot300 bb400nuc0bl0bn0d30tot400 bb500nuc0bl0bn0d30tot500 bb600nuc0bl0bn0d30tot600 bb700nuc0bl0bn0d30tot700 bb800nuc0bl0bn0d30tot800 bb900nuc0bl0bn0d30tot900 bb1000nuc0bl0bn0d30tot1000 bb1100nuc0bl0bn0d30tot1100 bb1200nuc0bl0bn0d30tot1200
variable f index bb800nuc0bl0bn0d30tot800 bb900nuc0bl0bn0d30tot900 bb1000nuc0bl0bn0d30tot1000 bb1100nuc0bl0bn0d30tot1100 bb1200nuc0bl0bn0d30tot1200
###


###
# Box and units  (use LJ units and periodic boundaries)
###

units lj
log linear/logs3/$f.log
log linear/logs3/bb1000nuc0bl0bn0d30tot1000.log
