ITEM: TIMESTEP
0
ITEM: NUMBER OF ATOMS
301
ITEM: BOX BOUNDS pp pp pp
-1.0000000000000000e+03 1.0000000000000000e+03
-1.0000000000000000e+03 1.0000000000000000e+03
-1.0000000000000000e+03 1.0000000000000000e+03
ITEM: ATOMS id x y z ix iy iz
1 0.00000 0.00000 0.00000 0 0 0
2 0.00000 0.00000 1.00000 0 0 0
3 0.00000 -0.50000 1.86603 0 0 0
4 0.00000 0.00000 2.73205 0 0 0
5 0.00000 -0.50000 3.59808 0 0 0
6 0.00000 0.00000 4.46410 0 0 0
7 0.00000 -0.50000 5.33013 0 0 0
8 0.00000 0.00000 6.19615 0 0 0
9 0.00000 -0.50000 7.06218 0 0 0
10 0.00000 0.00000 7.92820 0 0 0
11 0.00000 -0.50000 8.79423 0 0 0
12 0.00000 0.00000 9.66025 0 0 0
13 0.00000 -0.50000 10.52628 0 0 0
14 0.00000 0.00000 11.39230 0 0 0
15 0.00000 -0.50000 12.25833 0 0 0
16 0.00000 0.00000 13.12436 0 0 0
17 0.00000 -0.50000 13.99038 0 0 0
18 0.00000 0.00000 14.85641 0 0 0
19 0.00000 -0.50000 15.72243 0 0 0
20 0.00000 0.00000 16.58846 0 0 0
21 0.00000 -0.50000 17.45448 0 0 0
22 0.00000 0.00000 18.32051 0 0 0
23 0.00000 -0.50000 19.18653 0 0 0
24 0.00000 0.00000 20.05256 0 0 0
25 0.00000 -0.50000 20.91858 0 0 0
26 0.00000 0.00000 21.78461 0 0 0
27 0.00000 -0.50000 22.65064 0 0 0
28 0.00000 0.00000 23.51666 0 0 0
29 0.00000 -0.50000 24.38269 0 0 0
30 0.00000 0.00000 25.24871 0 0 0
31 0.00000 -0.50000 26.11474 0 0 0
32 0.00000 0.00000 26.98076 0 0 0
33 0.00000 -0.50000 27.84679 0 0 0
34 0.00000 0.00000 28.71281 0 0 0
35 0.00000 -0.50000 29.57884 0 0 0
36 0.00000 0.00000 30.44486 0 0 0
37 0.00000 -0.50000 31.31089 0 0 0
38 0.00000 0.00000 32.17691 0 0 0
39 0.00000 -0.50000 33.04294 0 0 0
40 0.00000 0.00000 33.90897 0 0 0
41 0.00000 -0.50000 34.77499 0 0 0
42 0.00000 0.00000 35.64102 0 0 0
43 0.00000 -0.50000 36.50704 0 0 0
44 0.00000 0.00000 37.37307 0 0 0
45 0.00000 -0.50000 38.23909 0 0 0
46 0.00000 0.00000 39.10512 0 0 0
47 0.00000 -0.50000 39.97114 0 0 0
48 0.00000 0.00000 40.83717 0 0 0
49 0.00000 -0.50000 41.70319 0 0 0
50 0.00000 0.00000 42.56922 0 0 0
51 0.00000 -0.50000 43.43524 0 0 0
52 0.00000 0.00000 44.30127 0 0 0
53 0.00000 -0.50000 45.16730 0 0 0
54 0.00000 0.00000 46.03332 0 0 0
55 0.00000 -0.50000 46.89935 0 0 0
56 0.00000 0.00000 47.76537 0 0 0
57 0.00000 -0.50000 48.63140 0 0 0
58 0.00000 0.00000 49.49742 0 0 0
59 0.00000 -0.50000 50.36345 0 0 0
60 0.00000 0.00000 51.22947 0 0 0
61 0.00000 -0.50000 52.09550 0 0 0
62 0.00000 0.00000 52.96152 0 0 0
63 0.00000 -0.50000 53.82755 0 0 0
64 0.00000 0.00000 54.69358 0 0 0
65 0.00000 -0.50000 55.55960 0 0 0
66 0.00000 0.00000 56.42563 0 0 0
67 0.00000 -0.50000 57.29165 0 0 0
68 0.00000 0.00000 58.15768 0 0 0
69 0.00000 -0.50000 59.02370 0 0 0
70 0.00000 0.00000 59.88973 0 0 0
71 0.00000 -0.50000 60.75575 0 0 0
72 0.00000 0.00000 61.62178 0 0 0
73 0.00000 -0.50000 62.48780 0 0 0
74 0.00000 0.00000 63.35383 0 0 0
75 0.00000 -0.50000 64.21985 0 0 0
76 0.00000 0.00000 65.08588 0 0 0
77 -0.94240 0.18531 65.36434 0 0 0
78 -1.88480 0.20655 65.69815 0 0 0
79 -2.82721 0.50626 65.84665 0 0 0
80 -3.76961 0.52751 66.18046 0 0 0
81 -4.71201 0.82722 66.32896 0 0 0
82 -5.65441 0.84847 66.66276 0 0 0
83 -6.59681 1.14818 66.81126 0 0 0
84 -7.53922 1.16943 67.14507 0 0 0
85 -8.48162 1.46914 67.29357 0 0 0
86 -9.42402 1.49039 67.62738 0 0 0
87 -10.36642 1.79010 67.77588 0 0 0
88 -11.30882 1.81135 68.10969 0 0 0
89 -12.25123 2.11106 68.25819 0 0 0
90 -13.19363 2.13231 68.59200 0 0 0
91 -14.13603 2.43202 68.74050 0 0 0
92 -15.07843 2.45327 69.07430 0 0 0
93 -16.02083 2.75298 69.22281 0 0 0
94 -16.96324 2.77423 69.55661 0 0 0
95 -17.90564 3.07394 69.70511 0 0 0
96 -18.84804 3.09518 70.03892 0 0 0
97 -19.79044 3.39489 70.18742 0 0 0
98 -20.73284 3.41614 70.52123 0 0 0
99 -21.67525 3.71585 70.66973 0 0 0
100 -22.61765 3.73710 71.00354 0 0 0
101 -23.56005 4.03681 71.15204 0 0 0
102 -24.50245 4.05806 71.48584 0 0 0
103 -25.44485 4.35777 71.63435 0 0 0
104 -26.38725 4.37902 71.96815 0 0 0
105 -27.32966 4.67873 72.11665 0 0 0
106 -28.27206 4.69998 72.45046 0 0 0
107 -29.21446 4.99969 72.59896 0 0 0
108 -30.15686 5.02094 72.93277 0 0 0
109 -31.09926 5.32065 73.08127 0 0 0
110 -32.04167 5.34190 73.41508 0 0 0
111 -32.98407 5.64161 73.56358 0 0 0
112 -33.92647 5.66285 73.89738 0 0 0
113 -34.86887 5.96256 74.04589 0 0 0
114 -35.81127 5.98381 74.37969 0 0 0
115 -36.75368 6.28352 74.52819 0 0 0
116 -37.69608 6.30477 74.86200 0 0 0
117 -38.63848 6.60448 75.01050 0 0 0
118 -39.58088 6.62573 75.34431 0 0 0
119 -40.52328 6.92544 75.49281 0 0 0
120 -41.46569 6.94669 75.82662 0 0 0
121 -42.40809 7.24640 75.97512 0 0 0
122 -43.35049 7.26765 76.30892 0 0 0
123 -44.29289 7.56736 76.45743 0 0 0
124 -45.23529 7.58861 76.79123 0 0 0
125 -46.17770 7.88832 76.93973 0 0 0
126 -47.12010 7.90957 77.27354 0 0 0
127 -48.06250 8.20928 77.42204 0 0 0
128 -49.00490 8.23053 77.75585 0 0 0
129 -49.94730 8.53024 77.90435 0 0 0
130 -50.88971 8.55148 78.23816 0 0 0
131 -51.83211 8.85119 78.38666 0 0 0
132 -52.77451 8.87244 78.72046 0 0 0
133 -53.71691 9.17215 78.86897 0 0 0
134 -54.65931 9.19340 79.20277 0 0 0
135 -55.60172 9.49311 79.35127 0 0 0
136 -56.54412 9.51436 79.68508 0 0 0
137 -57.48652 9.81407 79.83358 0 0 0
138 -58.42892 9.83532 80.16739 0 0 0
139 -59.37132 10.13503 80.31589 0 0 0
140 -60.31373 10.15628 80.64970 0 0 0
141 -61.25613 10.45599 80.79820 0 0 0
142 -62.19853 10.47724 81.13201 0 0 0
143 -63.14093 10.77695 81.28051 0 0 0
144 -64.08333 10.79820 81.61431 0 0 0
145 -65.02574 11.09791 81.76281 0 0 0
146 -65.96814 11.11915 82.09662 0 0 0
147 -66.91054 11.41886 82.24512 0 0 0
148 -67.85294 11.44011 82.57893 0 0 0
149 -68.79534 11.73982 82.72743 0 0 0
150 -69.73775 11.76107 83.06124 0 0 0
151 -70.68015 12.06078 83.20974 0 0 0
152 0.48960 0.86450 64.97221 0 0 0
153 0.97921 1.67002 65.30601 0 0 0
154 1.46881 2.36187 64.77532 0 0 0
155 1.95841 3.16739 65.10912 0 0 0
156 2.44802 3.85923 64.57843 0 0 0
157 2.93762 4.66475 64.91223 0 0 0
158 3.42722 5.35660 64.38154 0 0 0
159 3.91683 6.16212 64.71534 0 0 0
160 4.40643 6.85396 64.18465 0 0 0
161 4.89603 7.65948 64.51845 0 0 0
162 5.38564 8.35133 63.98776 0 0 0
163 5.87524 9.15685 64.32156 0 0 0
164 6.36484 9.84869 63.79086 0 0 0
165 6.85444 10.65421 64.12467 0 0 0
166 7.34405 11.34606 63.59397 0 0 0
167 7.83365 12.15157 63.92778 0 0 0
168 8.32325 12.84342 63.39708 0 0 0
169 8.81286 13.64894 63.73089 0 0 0
170 9.30246 14.34078 63.20019 0 0 0
171 9.79206 15.14630 63.53400 0 0 0
172 10.28167 15.83815 63.00330 0 0 0
173 10.77127 16.64367 63.33711 0 0 0
174 11.26087 17.33551 62.80641 0 0 0
175 11.75048 18.14103 63.14022 0 0 0
176 12.24008 18.83288 62.60952 0 0 0
177 12.72968 19.63840 62.94333 0 0 0
178 13.21929 20.33024 62.41263 0 0 0
179 13.70889 21.13576 62.74644 0 0 0
180 14.19849 21.82761 62.21574 0 0 0
181 14.68810 22.63313 62.54955 0 0 0
182 15.17770 23.32497 62.01885 0 0 0
183 15.66730 24.13049 62.35266 0 0 0
184 16.15691 24.82234 61.82196 0 0 0
185 16.64651 25.62785 62.15577 0 0 0
186 17.13611 26.31970 61.62507 0 0 0
187 17.62572 27.12522 61.95888 0 0 0
188 18.11532 27.81706 61.42818 0 0 0
189 18.60492 28.62258 61.76199 0 0 0
190 19.09453 29.31443 61.23129 0 0 0
191 19.58413 30.11995 61.56510 0 0 0
192 20.07373 30.81179 61.03440 0 0 0
193 20.56333 31.61731 61.36821 0 0 0
194 21.05294 32.30916 60.83751 0 0 0
195 21.54254 33.11468 61.17132 0 0 0
196 22.03214 33.80652 60.64062 0 0 0
197 22.52175 34.61204 60.97443 0 0 0
198 23.01135 35.30389 60.44373 0 0 0
199 23.50095 36.10941 60.77754 0 0 0
200 23.99056 36.80125 60.24684 0 0 0
201 24.48016 37.60677 60.58065 0 0 0
202 24.96976 38.29862 60.04995 0 0 0
203 25.45937 39.10414 60.38376 0 0 0
204 25.94897 39.79598 59.85306 0 0 0
205 26.43857 40.60150 60.18687 0 0 0
206 26.92818 41.29334 59.65617 0 0 0
207 27.41778 42.09886 59.98998 0 0 0
208 27.90738 42.79071 59.45928 0 0 0
209 28.39699 43.59623 59.79309 0 0 0
210 28.88659 44.28807 59.26239 0 0 0
211 29.37619 45.09359 59.59620 0 0 0
212 29.86580 45.78544 59.06550 0 0 0
213 30.35540 46.59096 59.39931 0 0 0
214 30.84500 47.28280 58.86861 0 0 0
215 31.33461 48.08832 59.20242 0 0 0
216 31.82421 48.78017 58.67172 0 0 0
217 32.31381 49.58569 59.00553 0 0 0
218 32.80342 50.27753 58.47483 0 0 0
219 33.29302 51.08305 58.80864 0 0 0
220 33.78262 51.77490 58.27794 0 0 0
221 34.27222 52.58042 58.61175 0 0 0
222 34.76183 53.27226 58.08105 0 0 0
223 35.25143 54.07778 58.41486 0 0 0
224 35.74103 54.76962 57.88416 0 0 0
225 36.23064 55.57514 58.21797 0 0 0
226 36.72024 56.26699 57.68727 0 0 0
227 0.45280 -0.54910 65.78835 0 0 0
228 0.90560 -1.37587 66.12216 0 0 0
229 1.35840 -1.50017 67.00506 0 0 0
230 1.81119 -2.32694 67.33887 0 0 0
231 2.26399 -2.45123 68.22178 0 0 0
232 2.71679 -3.27800 68.55558 0 0 0
233 3.16959 -3.40230 69.43849 0 0 0
234 3.62239 -4.22907 69.77229 0 0 0
235 4.07519 -4.35337 70.65520 0 0 0
236 4.52799 -5.18014 70.98901 0 0 0
237 4.98079 -5.30444 71.87191 0 0 0
238 5.43358 -6.13121 72.20572 0 0 0
239 5.88638 -6.25551 73.08863 0 0 0
240 6.33918 -7.08227 73.42243 0 0 0
241 6.79198 -7.20657 74.30534 0 0 0
242 7.24478 -8.03334 74.63915 0 0 0
243 7.69758 -8.15764 75.52205 0 0 0
244 8.15038 -8.98441 75.85586 0 0 0
245 8.60318 -9.10871 76.73877 0 0 0
246 9.05597 -9.93548 77.07257 0 0 0
247 9.50877 -10.05978 77.95548 0 0 0
248 9.96157 -10.88654 78.28929 0 0 0
249 10.41437 -11.01084 79.17219 0 0 0
250 10.86717 -11.83761 79.50600 0 0 0
251 11.31997 -11.96191 80.38890 0 0 0
252 11.77277 -12.78868 80.72271 0 0 0
253 12.22557 -12.91298 81.60562 0 0 0
254 12.67836 -13.73975 81.93942 0 0 0
255 13.13116 -13.86405 82.82233 0 0 0
256 13.58396 -14.69081 83.15614 0 0 0
257 14.03676 -14.81511 84.03904 0 0 0
258 14.48956 -15.64188 84.37285 0 0 0
259 14.94236 -15.76618 85.25576 0 0 0
260 15.39516 -16.59295 85.58956 0 0 0
261 15.84796 -16.71725 86.47247 0 0 0
262 16.30075 -17.54402 86.80628 0 0 0
263 16.75355 -17.66832 87.68918 0 0 0
264 17.20635 -18.49509 88.02299 0 0 0
265 17.65915 -18.61938 88.90589 0 0 0
266 18.11195 -19.44615 89.23970 0 0 0
267 18.56475 -19.57045 90.12261 0 0 0
268 19.01755 -20.39722 90.45641 0 0 0
269 19.47035 -20.52152 91.33932 0 0 0
270 19.92314 -21.34829 91.67313 0 0 0
271 20.37594 -21.47259 92.55603 0 0 0
272 20.82874 -22.29936 92.88984 0 0 0
273 21.28154 -22.42365 93.77275 0 0 0
274 21.73434 -23.25042 94.10655 0 0 0
275 22.18714 -23.37472 94.98946 0 0 0
276 22.63994 -24.20149 95.32327 0 0 0
277 23.09274 -24.32579 96.20617 0 0 0
278 23.54553 -25.15256 96.53998 0 0 0
279 23.99833 -25.27686 97.42288 0 0 0
280 24.45113 -26.10363 97.75669 0 0 0
281 24.90393 -26.22793 98.63960 0 0 0
282 25.35673 -27.05469 98.97340 0 0 0
283 25.80953 -27.17899 99.85631 0 0 0
284 26.26233 -28.00576 100.19012 0 0 0
285 26.71513 -28.13006 101.07302 0 0 0
286 27.16792 -28.95683 101.40683 0 0 0
287 27.62072 -29.08113 102.28974 0 0 0
288 28.07352 -29.90790 102.62354 0 0 0
289 28.52632 -30.03220 103.50645 0 0 0
290 28.97912 -30.85896 103.84026 0 0 0
291 29.43192 -30.98326 104.72316 0 0 0
292 29.88472 -31.81003 105.05697 0 0 0
293 30.33752 -31.93433 105.93987 0 0 0
294 30.79031 -32.76110 106.27368 0 0 0
295 31.24311 -32.88540 107.15659 0 0 0
296 31.69591 -33.71217 107.49039 0 0 0
297 32.14871 -33.83647 108.37330 0 0 0
298 32.60151 -34.66324 108.70711 0 0 0
299 33.05431 -34.78753 109.59001 0 0 0
300 33.50711 -35.61430 109.92382 0 0 0
301 33.95991 -35.73860 110.80673 0 0 0
ITEM: TIMESTEP
1000
ITEM: NUMBER OF ATOMS
301
ITEM: BOX BOUNDS pp pp pp
-1.0000000000000000e+03 1.0000000000000000e+03
-1.0000000000000000e+03 1.0000000000000000e+03
-1.0000000000000000e+03 1.0000000000000000e+03
ITEM: ATOMS id x y z ix iy iz
1 1.03006 -0.10172 5.13805 0 0 0
2 1.15865 0.65708 5.72233 0 0 0
3 0.92403 1.16827 6.55009 0 0 0
4 0.06203 0.77358 6.61629 0 0 0
5 -0.76991 0.33077 6.87451 0 0 0
6 -0.76911 -0.26116 7.61639 0 0 0
7 -0.72649 -0.22622 8.56760 0 0 0
8 0.22446 -0.15086 8.83140 0 0 0
9 1.24011 -0.39944 8.89087 0 0 0
10 0.90877 -1.29863 9.35669 0 0 0
11 0.22088 -1.69003 9.95435 0 0 0
12 -0.39328 -1.61886 10.68181 0 0 0
13 -0.56161 -1.46074 11.68699 0 0 0
14 -0.69058 -1.09871 12.58160 0 0 0
15 -1.01689 -0.70375 13.41668 0 0 0
16 -1.26239 -1.06764 14.35563 0 0 0
17 -1.09453 -0.80405 15.28134 0 0 0
18 -0.79650 -1.32645 16.04612 0 0 0
19 -0.77583 -1.54241 17.06076 0 0 0
20 -0.19892 -1.35654 17.94885 0 0 0
21 -0.07659 -1.44921 18.92647 0 0 0
22 -0.31391 -0.82412 19.61893 0 0 0
23 0.06053 -1.09965 20.56616 0 0 0
24 -0.16515 -1.50583 21.43413 0 0 0
25 -0.03950 -1.43472 22.39085 0 0 0
26 -0.39078 -0.80993 23.09782 0 0 0
27 -0.75712 -0.26008 23.81100 0 0 0
28 -1.38804 -0.33034 24.61970 0 0 0
29 -1.11308 0.48591 25.17706 0 0 0
30 -1.63023 0.82213 25.86624 0 0 0
31 -2.14836 0.72270 26.81997 0 0 0
32 -1.78338 0.72943 27.71892 0 0 0
33 -1.63677 0.78447 28.71792 0 0 0
34 -1.96207 0.59747 29.58320 0 0 0
35 -1.61121 0.16102 30.37455 0 0 0
36 -1.89754 -0.27251 31.22498 0 0 0
37 -2.17314 -0.99641 31.96314 0 0 0
38 -2.24459 -1.05262 32.96040 0 0 0
39 -2.22007 -1.27555 33.90959 0 0 0
40 -2.42306 -1.33384 34.87085 0 0 0
41 -2.09218 -1.41040 35.79438 0 0 0
42 -1.99624 -1.73561 36.66765 0 0 0
43 -1.44681 -1.55346 37.41699 0 0 0
44 -0.98994 -1.58237 38.31901 0 0 0
45 -1.14562 -1.84415 39.19431 0 0 0
46 -1.00491 -2.30179 40.12604 0 0 0
47 -0.99282 -2.00321 41.10205 0 0 0
48 -1.33782 -1.96644 41.98943 0 0 0
49 -1.43163 -2.21913 42.91110 0 0 0
50 -0.71814 -2.16349 43.48048 0 0 0
51 -0.77749 -2.15576 44.44193 0 0 0
52 -0.23569 -1.63495 45.03052 0 0 0
53 -0.47000 -1.10754 45.95095 0 0 0
54 -0.49986 -0.62274 46.80463 0 0 0
55 -0.45638 0.10158 47.62416 0 0 0
56 -0.12400 0.46525 48.45636 0 0 0
57 0.26001 1.02194 49.24525 0 0 0
58 0.54782 0.94654 50.16358 0 0 0
59 0.43477 1.19945 51.07403 0 0 0
60 -0.06454 1.16974 51.84239 0 0 0
61 -0.27344 1.40929 52.79759 0 0 0
62 -1.04492 0.84989 52.94524 0 0 0
63 -1.06271 0.57556 53.92080 0 0 0
64 -1.02598 -0.01522 54.74734 0 0 0
65 -1.03414 -0.06592 55.75609 0 0 0
66 -1.25857 -0.06933 56.73796 0 0 0
67 -1.05167 0.37003 57.59147 0 0 0
68 -0.73010 0.68135 58.50467 0 0 0
69 -0.27225 0.56781 59.44415 0 0 0
70 -0.33293 0.32615 60.36573 0 0 0
71 -0.78332 0.55118 61.24887 0 0 0
72 -0.58870 0.20051 62.14348 0 0 0
73 -0.64377 0.35275 63.14307 0 0 0
74 -0.65702 0.12779 64.15719 0 0 0
75 -1.17485 0.43580 64.95954 0 0 0
76 -1.01959 0.58932 65.96248 0 0 0
77 -1.95289 0.68608 66.04430 0 0 0
78 -2.98441 0.73310 66.04108 0 0 0
79 -3.84648 1.14993 66.24030 0 0 0
80 -4.77161 1.26758 66.53595 0 0 0
81 -5.82748 1.25211 66.59265 0 0 0
82 -6.76781 1.46658 66.94403 0 0 0
83 -7.76323 1.28256 67.04783 0 0 0
84 -8.59275 1.23677 67.73327 0 0 0
85 -9.57449 1.13613 67.89005 0 0 0
86 -10.51654 1.20877 67.92634 0 0 0
87 -11.50490 1.36129 67.75995 0 0 0
88 -12.50709 1.37576 67.78277 0 0 0
89 -13.51742 1.37624 67.59970 0 0 0
90 -14.36309 1.26526 68.22840 0 0 0
91 -15.04085 1.29190 68.90967 0 0 0
92 -16.00937 1.44539 69.11781 0 0 0
93 -16.99772 1.38678 69.51614 0 0 0
94 -17.97340 1.34115 69.17097 0 0 0
95 -18.91200 1.61600 69.47567 0 0 0
96 -19.73560 2.02736 70.01470 0 0 0
97 -20.59701 2.10060 70.53744 0 0 0
98 -21.49834 2.45436 70.80321 0 0 0
99 -22.30542 2.88838 71.15042 0 0 0
100 -23.21706 3.04358 71.48694 0 0 0
101 -23.93574 3.71577 71.83115 0 0 0
102 -25.01063 3.66256 71.89124 0 0 0
103 -25.83679 4.02857 72.13068 0 0 0
104 -26.50873 4.50784 72.53799 0 0 0
105 -27.43314 4.82671 72.80681 0 0 0
106 -28.29185 5.21073 73.09331 0 0 0
107 -29.06778 5.43154 73.62112 0 0 0
108 -29.98141 5.61842 73.64343 0 0 0
109 -30.82941 5.75126 74.09578 0 0 0
110 -31.84096 5.76235 74.28574 0 0 0
111 -32.79002 5.55577 74.32420 0 0 0
112 -33.60211 5.64755 74.86080 0 0 0
113 -34.49565 5.78101 74.52292 0 0 0
114 -35.34119 5.68572 74.99227 0 0 0
115 -36.30076 5.80113 75.24807 0 0 0
116 -37.25669 6.12646 75.44621 0 0 0
117 -37.72282 6.66323 76.10237 0 0 0
118 -38.56745 7.14481 76.27223 0 0 0
119 -39.44966 6.69157 76.46310 0 0 0
120 -40.48233 6.55968 76.35977 0 0 0
121 -41.40415 6.94698 76.56120 0 0 0
122 -42.34821 6.91950 76.60085 0 0 0
123 -43.41411 6.97671 76.68764 0 0 0
124 -44.37421 6.96071 76.72318 0 0 0
125 -45.35869 6.92947 76.88875 0 0 0
126 -46.32839 6.95602 77.13573 0 0 0
127 -47.15821 7.27989 77.39678 0 0 0
128 -48.14566 7.09214 77.21528 0 0 0
129 -49.06907 7.28589 77.47260 0 0 0
130 -49.68270 7.70055 78.13995 0 0 0
131 -50.50126 7.99739 77.85631 0 0 0
132 -51.42459 7.66271 77.99710 0 0 0
133 -52.02933 8.18121 77.44015 0 0 0
134 -52.54469 8.64940 78.13650 0 0 0
135 -53.44757 8.74529 78.21581 0 0 0
136 -54.40553 8.51567 78.29715 0 0 0
137 -54.93058 9.39525 78.25996 0 0 0
138 -55.76340 9.80732 78.41197 0 0 0
139 -55.89625 10.45891 79.08364 0 0 0
140 -56.45116 10.81117 79.85802 0 0 0
141 -57.48457 10.56221 79.84707 0 0 0
142 -58.44680 10.82901 80.08079 0 0 0
143 -59.05472 10.84391 80.86033 0 0 0
144 -59.98436 10.92174 81.23913 0 0 0
145 -60.83356 10.63253 81.37640 0 0 0
146 -61.52190 10.92473 80.72434 0 0 0
147 -61.84755 11.83026 81.00746 0 0 0
148 -62.43603 12.55943 80.86327 0 0 0
149 -63.25388 13.04160 81.06083 0 0 0
150 -63.88677 13.44427 81.65996 0 0 0
151 -63.39235 14.33441 81.51757 0 0 0
152 -0.41250 1.45195 66.01363 0 0 0
153 -0.21500 2.40840 65.87492 0 0 0
154 0.03317 3.27992 65.69649 0 0 0
155 0.51738 4.12165 65.47732 0 0 0
156 1.32775 4.56114 65.19050 0 0 0
157 2.01539 5.25700 65.06055 0 0 0
158 2.62089 5.90846 64.34893 0 0 0
159 3.04037 6.78227 64.10212 0 0 0
160 3.36100 7.75938 64.06610 0 0 0
161 3.78048 8.59118 63.99535 0 0 0
162 4.48504 9.10653 64.39322 0 0 0
163 5.17239 9.78806 64.39218 0 0 0
164 5.85989 10.55329 64.32121 0 0 0
165 6.39870 11.36236 64.08731 0 0 0
166 6.76271 12.21622 63.92263 0 0 0
167 6.56673 13.09760 63.47397 0 0 0
168 7.48354 13.35928 63.23182 0 0 0
169 8.49303 13.66530 63.29721 0 0 0
170 9.42242 14.01212 63.07460 0 0 0
171 9.86164 14.91240 63.14066 0 0 0
172 10.42501 15.70144 63.27179 0 0 0
173 10.96792 16.49605 63.10696 0 0 0
174 11.10687 17.24264 62.47928 0 0 0
175 10.99756 18.19271 62.47420 0 0 0
176 11.30776 19.14849 62.26871 0 0 0
177 11.90210 19.84929 62.01051 0 0 0
178 12.57897 20.56203 61.94921 0 0 0
179 13.33026 21.25587 61.84290 0 0 0
180 14.00563 21.88791 61.40645 0 0 0
181 14.68819 22.54435 61.59084 0 0 0
182 15.29082 23.31429 61.88331 0 0 0
183 15.52336 24.27942 61.55777 0 0 0
184 15.97415 25.10088 61.20632 0 0 0
185 16.55534 25.84019 61.32739 0 0 0
186 17.25340 26.62203 61.63874 0 0 0
187 17.57244 27.58153 61.38988 0 0 0
188 17.69051 28.60699 61.22046 0 0 0
189 18.45494 29.21312 60.98106 0 0 0
190 18.87778 30.07538 61.13144 0 0 0
191 19.77969 30.49566 60.93601 0 0 0
192 20.09658 31.32737 60.54994 0 0 0
193 20.88089 31.87659 60.70271 0 0 0
194 21.42406 32.55299 60.27767 0 0 0
195 21.86149 33.46110 60.39607 0 0 0
196 22.20748 34.29030 60.03903 0 0 0
197 22.55313 35.22114 60.29217 0 0 0
198 23.24150 35.85775 59.97115 0 0 0
199 23.17461 36.80121 59.59794 0 0 0
200 23.87840 37.43656 59.57046 0 0 0
201 24.73966 37.85950 59.70708 0 0 0
202 25.32417 38.60719 59.69772 0 0 0
203 25.96311 39.36089 60.02064 0 0 0
204 26.26872 40.24969 60.01306 0 0 0
205 27.15075 40.53395 59.71988 0 0 0
206 27.94607 40.98932 60.23535 0 0 0
207 28.33672 41.85417 60.28767 0 0 0
208 28.87520 42.43707 59.69820 0 0 0
209 28.70206 43.45290 59.61211 0 0 0
210 29.03931 44.17367 60.04239 0 0 0
211 29.48394 44.99401 59.75181 0 0 0
212 29.60680 45.74837 60.35368 0 0 0
213 30.22641 46.41199 60.20378 0 0 0
214 30.83115 46.62674 59.41039 0 0 0
215 31.44522 46.64887 58.66579 0 0 0
216 32.14198 47.20359 58.22213 0 0 0
217 32.46835 48.13232 58.02947 0 0 0
218 33.07851 48.79364 58.47176 0 0 0
219 33.68679 49.50127 58.41417 0 0 0
220 34.44973 49.98039 58.75747 0 0 0
221 35.13935 50.43929 58.34344 0 0 0
222 35.53563 51.35237 57.96303 0 0 0
223 35.25192 52.06227 58.61896 0 0 0
224 34.53935 52.57349 59.06566 0 0 0
225 33.91103 53.39626 59.06927 0 0 0
226 33.14100 53.85142 58.65985 0 0 0
227 -0.24244 0.21539 66.48507 0 0 0
228 0.27045 -0.57141 67.03608 0 0 0
229 0.88698 -1.02756 66.39929 0 0 0
230 1.11931 -1.43175 67.32847 0 0 0
231 1.50822 -1.99448 67.99382 0 0 0
232 2.24872 -2.65829 68.37964 0 0 0
233 2.47947 -3.51012 68.89925 0 0 0
234 2.24382 -3.79813 69.96243 0 0 0
235 2.91294 -3.73994 70.70507 0 0 0
236 3.29163 -3.59149 71.59908 0 0 0
237 3.87721 -4.09534 72.18373 0 0 0
238 4.72062 -4.34139 72.63625 0 0 0
239 5.23651 -5.19041 72.94054 0 0 0
240 5.72835 -5.79826 73.69839 0 0 0
241 6.17419 -6.45833 74.23929 0 0 0
242 6.69055 -7.26560 74.59787 0 0 0
243 6.58321 -8.16082 74.96214 0 0 0
244 7.32268 -8.78927 75.28375 0 0 0
245 7.88152 -9.09091 75.98616 0 0 0
246 8.36573 -9.87653 76.22296 0 0 0
247 9.13601 -10.22815 76.77906 0 0 0
248 9.16511 -10.51141 77.68202 0 0 0
249 9.23110 -11.25416 78.39308 0 0 0
250 9.42746 -12.06141 79.07493 0 0 0
251 10.18393 -12.87867 79.12685 0 0 0
252 10.81009 -12.67398 79.82765 0 0 0
253 11.43640 -13.34706 80.09656 0 0 0
254 12.20875 -13.88017 80.63448 0 0 0
255 12.43280 -14.59237 81.35880 0 0 0
256 13.17371 -15.02039 81.74380 0 0 0
257 13.83430 -15.29994 82.48543 0 0 0
258 14.37137 -15.53967 83.35204 0 0 0
259 14.99280 -16.24630 83.78139 0 0 0
260 15.70522 -16.73727 84.17857 0 0 0
261 16.26278 -16.75497 85.03522 0 0 0
262 16.95655 -16.93388 85.71066 0 0 0
263 17.22296 -17.44906 86.54761 0 0 0
264 18.06786 -17.25189 86.92785 0 0 0
265 18.90317 -17.31866 87.37957 0 0 0
266 19.27858 -17.74821 88.20471 0 0 0
267 19.97577 -18.05367 88.99724 0 0 0
268 20.48576 -18.37990 89.80448 0 0 0
269 20.45687 -19.32508 90.16241 0 0 0
270 20.50343 -19.64954 91.08129 0 0 0
271 20.84012 -20.18876 91.86443 0 0 0
272 20.72588 -20.97050 92.49517 0 0 0
273 21.20660 -21.35326 93.22647 0 0 0
274 21.58422 -21.58467 94.03365 0 0 0
275 21.62579 -22.32365 94.58633 0 0 0
276 22.38678 -23.06869 94.87781 0 0 0
277 22.72443 -23.89912 94.56651 0 0 0
278 22.88976 -24.58852 95.36010 0 0 0
279 23.21975 -24.74788 96.25329 0 0 0
280 23.87984 -25.03680 97.05669 0 0 0
281 24.29481 -25.97721 97.06614 0 0 0
282 23.95287 -26.72445 97.73978 0 0 0
283 24.24694 -26.92772 98.57409 0 0 0
284 25.16822 -26.78889 99.09289 0 0 0
285 25.86022 -27.10179 99.68706 0 0 0
286 26.56249 -26.65590 100.16322 0 0 0
287 26.75276 -27.63838 100.30333 0 0 0
288 26.36480 -27.84796 101.17646 0 0 0
289 27.04148 -28.49471 101.51350 0 0 0
290 26.69908 -29.09407 102.20223 0 0 0
291 26.33059 -29.73023 102.86820 0 0 0
292 26.58342 -29.64047 103.77760 0 0 0
293 27.06187 -30.01225 104.50538 0 0 0
294 27.84331 -30.28200 104.94093 0 0 0
295 28.79800 -30.35033 105.19795 0 0 0
296 29.29594 -31.00196 105.85892 0 0 0
297 28.56356 -31.54351 106.19531 0 0 0
298 29.07885 -32.36758 106.50524 0 0 0
299 28.83351 -33.28171 106.58681 0 0 0
300 29.60517 -33.41732 105.90363 0 0 0
301 30.31191 -34.13870 105.86879 0 0 0
ITEM: TIMESTEP
2000
ITEM: NUMBER OF ATOMS
301
ITEM: BOX BOUNDS pp pp pp
-1.0000000000000000e+03 1.0000000000000000e+03
-1.0000000000000000e+03 1.0000000000000000e+03
-1.0000000000000000e+03 1.0000000000000000e+03
ITEM: ATOMS id x y z ix iy iz
1 -1.14060 1.87199 6.39746 0 0 0
2 -0.67641 2.81944 6.17343 0 0 0
3 0.02271 2.63461 6.90862 0 0 0
4 0.49369 2.29476 7.62976 0 0 0
5 0.56154 1.64417 8.30898 0 0 0
6 1.00050 1.83744 9.17808 0 0 0
7 1.02873 1.93017 10.15846 0 0 0
8 1.41762 1.11069 10.61886 0 0 0
9 1.17535 0.34629 11.19546 0 0 0
10 1.31819 0.54226 12.17398 0 0 0
11 0.56264 0.41953 12.84043 0 0 0
12 0.11495 0.05839 13.60858 0 0 0
13 0.20489 -0.29224 14.52265 0 0 0
14 0.11006 -1.02583 15.17591 0 0 0
15 0.55792 -0.55753 15.89148 0 0 0
16 -0.03318 -0.45373 16.63409 0 0 0
17 0.47538 -0.11440 17.39660 0 0 0
18 1.06916 -0.35187 18.11216 0 0 0
19 1.30103 0.12571 18.97221 0 0 0
20 1.11172 -0.48203 19.77464 0 0 0
21 0.24892 -0.78341 20.11487 0 0 0
22 0.13903 -1.33263 20.91717 0 0 0
23 -0.65048 -1.42453 21.59478 0 0 0
24 -0.17825 -1.91280 22.30273 0 0 0
25 -0.02619 -1.91291 23.32602 0 0 0
26 -0.40503 -2.23331 24.17515 0 0 0
27 -0.72587 -2.49206 25.12108 0 0 0
28 -1.34535 -2.37314 25.85230 0 0 0
29 -1.61488 -2.50915 26.74475 0 0 0
30 -1.90553 -2.84591 27.54538 0 0 0
31 -2.07474 -2.86813 28.44698 0 0 0
32 -2.14201 -2.33668 29.21817 0 0 0
33 -2.15555 -1.83460 30.13897 0 0 0
34 -2.68695 -1.59272 30.93664 0 0 0
35 -2.30585 -1.46986 31.85527 0 0 0
36 -1.92463 -1.96614 32.61759 0 0 0
37 -2.03638 -2.17677 33.59800 0 0 0
38 -2.38617 -2.10087 34.46039 0 0 0
39 -2.51015 -1.65736 35.28842 0 0 0
40 -2.82434 -1.39482 36.12905 0 0 0
41 -2.37832 -0.61868 36.63767 0 0 0
42 -2.30221 -1.00050 37.50568 0 0 0
43 -2.00916 -0.12224 37.72934 0 0 0
44 -1.63966 0.73759 37.98772 0 0 0
45 -1.64131 0.32562 38.94075 0 0 0
46 -1.88377 0.51473 39.89110 0 0 0
47 -1.91852 1.06168 40.68775 0 0 0
48 -1.96061 1.17429 41.72443 0 0 0
49 -1.75432 1.21234 42.72974 0 0 0
50 -1.58151 1.85940 43.49227 0 0 0
51 -1.48023 1.55551 44.42514 0 0 0
52 -1.44338 1.33991 45.38769 0 0 0
53 -1.48506 1.07681 46.38294 0 0 0
54 -1.96549 0.69720 47.19266 0 0 0
55 -2.02212 0.01876 47.92369 0 0 0
56 -2.03476 0.04205 48.92836 0 0 0
57 -2.03402 0.01750 49.92798 0 0 0
58 -2.56261 -0.31130 50.60994 0 0 0
59 -2.66671 0.56537 51.01296 0 0 0
60 -2.58923 0.34931 51.93171 0 0 0
61 -2.23237 0.43906 52.88991 0 0 0
62 -1.79498 0.45834 53.79174 0 0 0
63 -1.83063 0.54521 54.76915 0 0 0
64 -1.23925 0.68299 55.56647 0 0 0
65 -1.54160 0.32630 56.46915 0 0 0
66 -1.37669 0.39032 57.42370 0 0 0
67 -1.11400 0.41246 58.35397 0 0 0
68 -1.50944 0.75532 59.20396 0 0 0
69 -2.05641 0.28907 59.87257 0 0 0
70 -2.33856 -0.10427 60.77262 0 0 0
71 -2.28209 -0.05515 61.77647 0 0 0
72 -2.40875 0.58852 62.50040 0 0 0
73 -2.41207 0.51511 63.57592 0 0 0
74 -1.73174 0.16305 64.31954 0 0 0
75 -1.52049 0.90243 64.87062 0 0 0
76 -1.52068 1.29638 65.77015 0 0 0
77 -2.40869 0.91360 65.99538 0 0 0
78 -3.37718 0.97628 66.03974 0 0 0
79 -4.26676 0.64982 66.29335 0 0 0
80 -5.15511 0.39354 66.01654 0 0 0
81 -5.66075 0.34897 66.80299 0 0 0
82 -6.59214 0.50177 66.29968 0 0 0
83 -7.39697 1.07768 66.48779 0 0 0
84 -8.33524 0.69965 66.75216 0 0 0
85 -9.27186 0.55651 67.20707 0 0 0
86 -10.23317 0.82499 67.60701 0 0 0
87 -11.16174 0.89272 67.83790 0 0 0
88 -12.04855 1.23458 68.23227 0 0 0
89 -12.96943 1.42591 68.29371 0 0 0
90 -13.71752 1.07552 68.75095 0 0 0
91 -13.96098 1.21676 69.71278 0 0 0
92 -14.52909 1.87434 70.23002 0 0 0
93 -15.25304 2.57343 70.06092 0 0 0
94 -15.98023 2.42541 70.69730 0 0 0
95 -16.74787 2.71676 71.17347 0 0 0
96 -17.61584 2.51407 71.52104 0 0 0
97 -18.34916 3.16484 71.81738 0 0 0
98 -19.33200 3.00856 71.69479 0 0 0
99 -20.31079 2.73355 71.94636 0 0 0
100 -21.23057 2.94127 72.23042 0 0 0
101 -22.12175 3.13390 72.65983 0 0 0
102 -23.01590 3.16788 73.07495 0 0 0
103 -23.74990 3.76649 73.00627 0 0 0
104 -24.75077 4.09319 73.13856 0 0 0
105 -25.59113 4.64452 73.29112 0 0 0
106 -26.34832 4.44572 73.85804 0 0 0
107 -27.34705 4.49706 74.25621 0 0 0
108 -28.32545 4.19753 74.24782 0 0 0
109 -29.27347 4.37256 74.20024 0 0 0
110 -30.20904 4.19820 74.32379 0 0 0
111 -31.11828 4.64057 74.69717 0 0 0
112 -31.50429 5.46324 74.48866 0 0 0
113 -32.33198 5.87356 74.83195 0 0 0
114 -33.16359 6.36801 75.12263 0 0 0
115 -33.87386 6.77689 75.66362 0 0 0
116 -34.67079 7.30439 75.71989 0 0 0
117 -35.60165 7.07076 76.00214 0 0 0
118 -36.59802 7.27997 76.29193 0 0 0
119 -37.58507 7.54803 76.01589 0 0 0
120 -38.33928 7.92920 76.47996 0 0 0
121 -39.14964 8.63861 76.51321 0 0 0
122 -40.07315 8.74756 76.31994 0 0 0
123 -41.04840 8.74995 76.59356 0 0 0
124 -41.88040 8.33828 76.28258 0 0 0
125 -42.90823 8.30455 76.39835 0 0 0
126 -43.62534 8.02488 77.00837 0 0 0
127 -44.52973 8.27820 77.08349 0 0 0
128 -45.48270 8.59929 77.12292 0 0 0
129 -46.41255 8.81770 77.15661 0 0 0
130 -47.11134 9.12266 77.74721 0 0 0
131 -47.83400 9.74554 78.21849 0 0 0
132 -48.76346 9.88594 78.10936 0 0 0
133 -49.72772 10.10785 78.35565 0 0 0
134 -50.77198 10.10003 78.52212 0 0 0
135 -51.61136 9.66721 78.76298 0 0 0
136 -52.51728 9.33986 79.01889 0 0 0
137 -53.36111 8.99953 79.27301 0 0 0
138 -54.15825 9.11411 79.99814 0 0 0
139 -54.89482 9.77953 79.96594 0 0 0
140 -55.29037 8.86718 80.15541 0 0 0
141 -56.20575 8.72662 79.69944 0 0 0
142 -57.25663 9.03899 79.81997 0 0 0
143 -58.18790 8.86422 80.01604 0 0 0
144 -58.95388 8.79176 80.66246 0 0 0
145 -58.69322 9.68622 80.34705 0 0 0
146 -59.10254 10.49752 79.97325 0 0 0
147 -59.52922 11.32515 80.08758 0 0 0
148 -60.54212 11.24975 80.31693 0 0 0
149 -61.23810 11.89637 80.57824 0 0 0
150 -61.04919 11.76570 81.55540 0 0 0
151 -60.22370 11.51521 81.88479 0 0 0
152 -1.18773 2.19134 65.48706 0 0 0
153 -0.54242 2.86279 65.12010 0 0 0
154 0.07297 3.49132 64.57889 0 0 0
155 0.66740 4.24613 64.63268 0 0 0
156 1.26059 4.98765 64.61346 0 0 0
157 1.63790 5.86901 64.45829 0 0 0
158 1.98194 6.74108 64.27943 0 0 0
159 2.51103 7.25187 64.93299 0 0 0
160 3.36464 7.77792 65.04953 0 0 0
161 4.05153 8.38186 64.64054 0 0 0
162 4.98913 8.71685 64.63262 0 0 0
163 5.64879 8.84557 63.90799 0 0 0
164 6.19086 9.76553 64.10316 0 0 0
165 6.48281 10.58107 63.68494 0 0 0
166 7.26522 11.24143 63.88375 0 0 0
167 7.84256 11.94573 63.75692 0 0 0
168 8.30280 12.77307 63.44644 0 0 0
169 8.77987 13.57870 63.39837 0 0 0
170 9.44737 14.33957 63.42272 0 0 0
171 9.91785 15.06005 63.89354 0 0 0
172 10.52985 15.80446 63.90039 0 0 0
173 10.92549 16.66975 63.66827 0 0 0
174 11.39715 17.46515 63.53159 0 0 0
175 12.12164 18.04368 63.13444 0 0 0
176 12.39918 18.90386 62.87345 0 0 0
177 13.06735 19.41883 62.41178 0 0 0
178 13.74045 20.04071 62.17322 0 0 0
179 14.17090 20.86187 61.99352 0 0 0
180 14.91039 21.42148 61.58678 0 0 0
181 15.33883 22.30509 61.23456 0 0 0
182 16.03219 22.97776 61.27400 0 0 0
183 16.65489 23.58471 61.74597 0 0 0
184 17.57277 23.90253 61.61451 0 0 0
185 18.29987 24.52123 61.56024 0 0 0
186 19.07913 25.22832 61.48804 0 0 0
187 19.66073 25.99708 61.34223 0 0 0
188 19.72721 26.96850 61.16931 0 0 0
189 20.40195 27.75426 61.18160 0 0 0
190 21.17104 28.27218 61.52969 0 0 0
191 21.47213 29.11331 61.06007 0 0 0
192 22.11237 29.96826 60.96917 0 0 0
193 22.39769 30.84779 60.56828 0 0 0
194 23.23048 31.32538 60.42598 0 0 0
195 23.86553 32.12969 60.24756 0 0 0
196 23.53372 33.07899 60.26111 0 0 0
197 23.92022 33.93147 60.42592 0 0 0
198 24.35683 34.69466 61.03022 0 0 0
199 24.80822 35.53002 60.72960 0 0 0
200 25.62545 35.97779 60.35114 0 0 0
201 25.99667 36.75947 60.90327 0 0 0
202 26.84605 37.45907 61.02497 0 0 0
203 26.68877 38.40664 61.03913 0 0 0
204 27.01042 39.29788 61.17996 0 0 0