ITEM: TIMESTEP
0
ITEM: NUMBER OF ATOMS
401
ITEM: BOX BOUNDS pp pp pp
-1.0000000000000000e+03 1.0000000000000000e+03
-1.0000000000000000e+03 1.0000000000000000e+03
-1.0000000000000000e+03 1.0000000000000000e+03
ITEM: ATOMS id x y z ix iy iz
1 0.00000 0.00000 0.00000 0 0 0
2 0.00000 0.00000 1.00000 0 0 0
3 0.00000 -0.50000 1.86603 0 0 0
4 0.00000 0.00000 2.73205 0 0 0
5 0.00000 -0.50000 3.59808 0 0 0
6 0.00000 0.00000 4.46410 0 0 0
7 0.00000 -0.50000 5.33013 0 0 0
8 0.00000 0.00000 6.19615 0 0 0
9 0.00000 -0.50000 7.06218 0 0 0
10 0.00000 0.00000 7.92820 0 0 0
11 0.00000 -0.50000 8.79423 0 0 0
12 0.00000 0.00000 9.66025 0 0 0
13 0.00000 -0.50000 10.52628 0 0 0
14 0.00000 0.00000 11.39230 0 0 0
15 0.00000 -0.50000 12.25833 0 0 0
16 0.00000 0.00000 13.12436 0 0 0
17 0.00000 -0.50000 13.99038 0 0 0
18 0.00000 0.00000 14.85641 0 0 0
19 0.00000 -0.50000 15.72243 0 0 0
20 0.00000 0.00000 16.58846 0 0 0
21 0.00000 -0.50000 17.45448 0 0 0
22 0.00000 0.00000 18.32051 0 0 0
23 0.00000 -0.50000 19.18653 0 0 0
24 0.00000 0.00000 20.05256 0 0 0
25 0.00000 -0.50000 20.91858 0 0 0
26 0.00000 0.00000 21.78461 0 0 0
27 0.00000 -0.50000 22.65064 0 0 0
28 0.00000 0.00000 23.51666 0 0 0
29 0.00000 -0.50000 24.38269 0 0 0
30 0.00000 0.00000 25.24871 0 0 0
31 0.00000 -0.50000 26.11474 0 0 0
32 0.00000 0.00000 26.98076 0 0 0
33 0.00000 -0.50000 27.84679 0 0 0
34 0.00000 0.00000 28.71281 0 0 0
35 0.00000 -0.50000 29.57884 0 0 0
36 0.00000 0.00000 30.44486 0 0 0
37 0.00000 -0.50000 31.31089 0 0 0
38 0.00000 0.00000 32.17691 0 0 0
39 0.00000 -0.50000 33.04294 0 0 0
40 0.00000 0.00000 33.90897 0 0 0
41 0.00000 -0.50000 34.77499 0 0 0
42 0.00000 0.00000 35.64102 0 0 0
43 0.00000 -0.50000 36.50704 0 0 0
44 0.00000 0.00000 37.37307 0 0 0
45 0.00000 -0.50000 38.23909 0 0 0
46 0.00000 0.00000 39.10512 0 0 0
47 0.00000 -0.50000 39.97114 0 0 0
48 0.00000 0.00000 40.83717 0 0 0
49 0.00000 -0.50000 41.70319 0 0 0
50 0.00000 0.00000 42.56922 0 0 0
51 0.00000 -0.50000 43.43524 0 0 0
52 0.00000 0.00000 44.30127 0 0 0
53 0.00000 -0.50000 45.16730 0 0 0
54 0.00000 0.00000 46.03332 0 0 0
55 0.00000 -0.50000 46.89935 0 0 0
56 0.00000 0.00000 47.76537 0 0 0
57 0.00000 -0.50000 48.63140 0 0 0
58 0.00000 0.00000 49.49742 0 0 0
59 0.00000 -0.50000 50.36345 0 0 0
60 0.00000 0.00000 51.22947 0 0 0
61 0.00000 -0.50000 52.09550 0 0 0
62 0.00000 0.00000 52.96152 0 0 0
63 0.00000 -0.50000 53.82755 0 0 0
64 0.00000 0.00000 54.69358 0 0 0
65 0.00000 -0.50000 55.55960 0 0 0
66 0.00000 0.00000 56.42563 0 0 0
67 0.00000 -0.50000 57.29165 0 0 0
68 0.00000 0.00000 58.15768 0 0 0
69 0.00000 -0.50000 59.02370 0 0 0
70 0.00000 0.00000 59.88973 0 0 0
71 0.00000 -0.50000 60.75575 0 0 0
72 0.00000 0.00000 61.62178 0 0 0
73 0.00000 -0.50000 62.48780 0 0 0
74 0.00000 0.00000 63.35383 0 0 0
75 0.00000 -0.50000 64.21985 0 0 0
76 0.00000 0.00000 65.08588 0 0 0
77 0.00000 -0.50000 65.95191 0 0 0
78 0.00000 0.00000 66.81793 0 0 0
79 0.00000 -0.50000 67.68396 0 0 0
80 0.00000 0.00000 68.54998 0 0 0
81 0.00000 -0.50000 69.41601 0 0 0
82 0.00000 0.00000 70.28203 0 0 0
83 0.00000 -0.50000 71.14806 0 0 0
84 0.00000 0.00000 72.01408 0 0 0
85 0.00000 -0.50000 72.88011 0 0 0
86 0.00000 0.00000 73.74613 0 0 0
87 0.00000 -0.50000 74.61216 0 0 0
88 0.00000 0.00000 75.47818 0 0 0
89 0.00000 -0.50000 76.34421 0 0 0
90 0.00000 0.00000 77.21024 0 0 0
91 0.00000 -0.50000 78.07626 0 0 0
92 0.00000 0.00000 78.94229 0 0 0
93 0.00000 -0.50000 79.80831 0 0 0
94 0.00000 0.00000 80.67434 0 0 0
95 0.00000 -0.50000 81.54036 0 0 0
96 0.00000 0.00000 82.40639 0 0 0
97 0.00000 -0.50000 83.27241 0 0 0
98 0.00000 0.00000 84.13844 0 0 0
99 0.00000 -0.50000 85.00446 0 0 0
100 0.00000 0.00000 85.87049 0 0 0
101 0.00000 -0.50000 86.73651 0 0 0
102 0.08448 -1.47997 86.55618 0 0 0
103 0.16896 -2.23848 85.91001 0 0 0
104 0.25344 -3.17733 86.24382 0 0 0
105 0.33792 -3.93584 85.59766 0 0 0
106 0.42240 -4.87468 85.93146 0 0 0
107 0.50689 -5.63319 85.28530 0 0 0
108 0.59137 -6.57204 85.61911 0 0 0
109 0.67585 -7.33055 84.97294 0 0 0
110 0.76033 -8.26940 85.30675 0 0 0
111 0.84481 -9.02791 84.66059 0 0 0
112 0.92929 -9.96676 84.99440 0 0 0
113 1.01377 -10.72527 84.34823 0 0 0
114 1.09825 -11.66412 84.68204 0 0 0
115 1.18273 -12.42262 84.03588 0 0 0
116 1.26721 -13.36147 84.36968 0 0 0
117 1.35169 -14.11998 83.72352 0 0 0
118 1.43617 -15.05883 84.05733 0 0 0
119 1.52066 -15.81734 83.41116 0 0 0
120 1.60514 -16.75619 83.74497 0 0 0
121 1.68962 -17.51470 83.09881 0 0 0
122 1.77410 -18.45355 83.43261 0 0 0
123 1.85858 -19.21205 82.78645 0 0 0
124 1.94306 -20.15090 83.12026 0 0 0
125 2.02754 -20.90941 82.47410 0 0 0
126 2.11202 -21.84826 82.80790 0 0 0
127 2.19650 -22.60677 82.16174 0 0 0
128 2.28098 -23.54562 82.49555 0 0 0
129 2.36546 -24.30413 81.84938 0 0 0
130 2.44994 -25.24298 82.18319 0 0 0
131 2.53443 -26.00148 81.53703 0 0 0
132 2.61891 -26.94033 81.87083 0 0 0
133 2.70339 -27.69884 81.22467 0 0 0
134 2.78787 -28.63769 81.55848 0 0 0
135 2.87235 -29.39620 80.91232 0 0 0
136 2.95683 -30.33505 81.24612 0 0 0
137 3.04131 -31.09356 80.59996 0 0 0
138 3.12579 -32.03241 80.93377 0 0 0
139 3.21027 -32.79091 80.28760 0 0 0
140 3.29475 -33.72976 80.62141 0 0 0
141 3.37923 -34.48827 79.97525 0 0 0
142 3.46372 -35.42712 80.30905 0 0 0
143 3.54820 -36.18563 79.66289 0 0 0
144 3.63268 -37.12448 79.99670 0 0 0
145 3.71716 -37.88299 79.35053 0 0 0
146 3.80164 -38.82184 79.68434 0 0 0
147 3.88612 -39.58035 79.03818 0 0 0
148 3.97060 -40.51919 79.37199 0 0 0
149 4.05508 -41.27770 78.72582 0 0 0
150 4.13956 -42.21655 79.05963 0 0 0
151 4.22404 -42.97506 78.41347 0 0 0
152 4.30852 -43.91391 78.74727 0 0 0
153 4.39300 -44.67242 78.10111 0 0 0
154 4.47749 -45.61127 78.43492 0 0 0
155 4.56197 -46.36978 77.78875 0 0 0
156 4.64645 -47.30862 78.12256 0 0 0
157 4.73093 -48.06713 77.47640 0 0 0
158 4.81541 -49.00598 77.81020 0 0 0
159 4.89989 -49.76449 77.16404 0 0 0
160 4.98437 -50.70334 77.49785 0 0 0
161 5.06885 -51.46185 76.85169 0 0 0
162 5.15333 -52.40070 77.18549 0 0 0
163 5.23781 -53.15921 76.53933 0 0 0
164 5.32229 -54.09805 76.87314 0 0 0
165 5.40677 -54.85656 76.22697 0 0 0
166 5.49126 -55.79541 76.56078 0 0 0
167 5.57574 -56.55392 75.91462 0 0 0
168 5.66022 -57.49277 76.24842 0 0 0
169 5.74470 -58.25128 75.60226 0 0 0
170 5.82918 -59.19013 75.93607 0 0 0
171 5.91366 -59.94864 75.28991 0 0 0
172 5.99814 -60.88748 75.62371 0 0 0
173 6.08262 -61.64599 74.97755 0 0 0
174 6.16710 -62.58484 75.31136 0 0 0
175 6.25158 -63.34335 74.66519 0 0 0
176 6.33606 -64.28220 74.99900 0 0 0
177 6.42055 -65.04071 74.35284 0 0 0
178 6.50503 -65.97956 74.68664 0 0 0
179 6.58951 -66.73807 74.04048 0 0 0
180 6.67399 -67.67691 74.37429 0 0 0
181 6.75847 -68.43542 73.72812 0 0 0
182 6.84295 -69.37427 74.06193 0 0 0
183 6.92743 -70.13278 73.41577 0 0 0
184 7.01191 -71.07163 73.74958 0 0 0
185 7.09639 -71.83014 73.10341 0 0 0
186 7.18087 -72.76899 73.43722 0 0 0
187 7.26535 -73.52750 72.79106 0 0 0
188 7.34983 -74.46634 73.12486 0 0 0
189 7.43432 -75.22485 72.47870 0 0 0
190 7.51880 -76.16370 72.81251 0 0 0
191 7.60328 -76.92221 72.16634 0 0 0
192 7.68776 -77.86106 72.50015 0 0 0
193 7.77224 -78.61957 71.85399 0 0 0
194 7.85672 -79.55842 72.18779 0 0 0
195 7.94120 -80.31693 71.54163 0 0 0
196 8.02568 -81.25577 71.87544 0 0 0
197 8.11016 -82.01428 71.22928 0 0 0
198 8.19464 -82.95313 71.56308 0 0 0
199 8.27912 -83.71164 70.91692 0 0 0
200 8.36360 -84.65049 71.25073 0 0 0
201 8.44809 -85.40900 70.60456 0 0 0
202 -0.85531 -0.32373 87.22373 0 0 0
203 -1.71061 -0.41469 87.73381 0 0 0
204 -2.56592 -0.01842 88.06761 0 0 0
205 -3.42123 -0.10938 88.57769 0 0 0
206 -4.27653 0.28688 88.91150 0 0 0
207 -5.13184 0.19593 89.42157 0 0 0
208 -5.98715 0.59219 89.75538 0 0 0
209 -6.84245 0.50124 90.26546 0 0 0
210 -7.69776 0.89750 90.59926 0 0 0
211 -8.55307 0.80654 91.10934 0 0 0
212 -9.40838 1.20280 91.44315 0 0 0
213 -10.26368 1.11185 91.95322 0 0 0
214 -11.11899 1.50811 92.28703 0 0 0
215 -11.97430 1.41716 92.79710 0 0 0
216 -12.82960 1.81342 93.13091 0 0 0
217 -13.68491 1.72246 93.64099 0 0 0
218 -14.54022 2.11873 93.97479 0 0 0
219 -15.39552 2.02777 94.48487 0 0 0
220 -16.25083 2.42403 94.81868 0 0 0
221 -17.10614 2.33308 95.32875 0 0 0
222 -17.96144 2.72934 95.66256 0 0 0
223 -18.81675 2.63839 96.17264 0 0 0
224 -19.67206 3.03465 96.50644 0 0 0
225 -20.52736 2.94369 97.01652 0 0 0
226 -21.38267 3.33995 97.35033 0 0 0
227 -22.23798 3.24900 97.86040 0 0 0
228 -23.09328 3.64526 98.19421 0 0 0
229 -23.94859 3.55431 98.70428 0 0 0
230 -24.80390 3.95057 99.03809 0 0 0
231 -25.65920 3.85961 99.54817 0 0 0
232 -26.51451 4.25588 99.88197 0 0 0
233 -27.36982 4.16492 100.39205 0 0 0
234 -28.22513 4.56118 100.72586 0 0 0
235 -29.08043 4.47023 101.23593 0 0 0
236 -29.93574 4.86649 101.56974 0 0 0
237 -30.79105 4.77554 102.07982 0 0 0
238 -31.64635 5.17180 102.41362 0 0 0
239 -32.50166 5.08084 102.92370 0 0 0
240 -33.35697 5.47710 103.25751 0 0 0
241 -34.21227 5.38615 103.76758 0 0 0
242 -35.06758 5.78241 104.10139 0 0 0
243 -35.92289 5.69146 104.61146 0 0 0
244 -36.77819 6.08772 104.94527 0 0 0
245 -37.63350 5.99676 105.45535 0 0 0
246 -38.48881 6.39303 105.78915 0 0 0
247 -39.34411 6.30207 106.29923 0 0 0
248 -40.19942 6.69833 106.63304 0 0 0
249 -41.05473 6.60738 107.14311 0 0 0
250 -41.91003 7.00364 107.47692 0 0 0
251 -42.76534 6.91268 107.98700 0 0 0
252 -43.62065 7.30895 108.32080 0 0 0
253 -44.47596 7.21799 108.83088 0 0 0
254 -45.33126 7.61425 109.16468 0 0 0
255 -46.18657 7.52330 109.67476 0 0 0
256 -47.04188 7.91956 110.00857 0 0 0
257 -47.89718 7.82861 110.51864 0 0 0
258 -48.75249 8.22487 110.85245 0 0 0
259 -49.60780 8.13391 111.36253 0 0 0
260 -50.46310 8.53017 111.69633 0 0 0
261 -51.31841 8.43922 112.20641 0 0 0
262 -52.17372 8.83548 112.54022 0 0 0
263 -53.02902 8.74453 113.05029 0 0 0
264 -53.88433 9.14079 113.38410 0 0 0
265 -54.73964 9.04983 113.89418 0 0 0
266 -55.59494 9.44610 114.22798 0 0 0
267 -56.45025 9.35514 114.73806 0 0 0
268 -57.30556 9.75140 115.07186 0 0 0
269 -58.16086 9.66045 115.58194 0 0 0
270 -59.01617 10.05671 115.91575 0 0 0
271 -59.87148 9.96576 116.42582 0 0 0
272 -60.72678 10.36202 116.75963 0 0 0
273 -61.58209 10.27106 117.26971 0 0 0
274 -62.43740 10.66732 117.60351 0 0 0
275 -63.29271 10.57637 118.11359 0 0 0
276 -64.14801 10.97263 118.44740 0 0 0
277 -65.00332 10.88168 118.95747 0 0 0
278 -65.85863 11.27794 119.29128 0 0 0
279 -66.71393 11.18698 119.80136 0 0 0
280 -67.56924 11.58325 120.13516 0 0 0
281 -68.42455 11.49229 120.64524 0 0 0
282 -69.27985 11.88855 120.97904 0 0 0
283 -70.13516 11.79760 121.48912 0 0 0
284 -70.99047 12.19386 121.82293 0 0 0
285 -71.84577 12.10291 122.33300 0 0 0
286 -72.70108 12.49917 122.66681 0 0 0
287 -73.55639 12.40821 123.17689 0 0 0
288 -74.41169 12.80447 123.51069 0 0 0
289 -75.26700 12.71352 124.02077 0 0 0
290 -76.12231 13.10978 124.35458 0 0 0
291 -76.97761 13.01883 124.86465 0 0 0
292 -77.83292 13.41509 125.19846 0 0 0
293 -78.68823 13.32413 125.70854 0 0 0
294 -79.54354 13.72040 126.04234 0 0 0
295 -80.39884 13.62944 126.55242 0 0 0
296 -81.25415 14.02570 126.88622 0 0 0
297 -82.10946 13.93475 127.39630 0 0 0
298 -82.96476 14.33101 127.73011 0 0 0
299 -83.82007 14.24005 128.24018 0 0 0
300 -84.67538 14.63632 128.57399 0 0 0
301 -85.53068 14.54536 129.08407 0 0 0
302 0.77083 -0.19701 87.29689 0 0 0
303 1.54165 -0.21480 87.93369 0 0 0
304 2.31248 0.32779 88.26750 0 0 0
305 3.08330 0.30999 88.90429 0 0 0
306 3.85413 0.85258 89.23810 0 0 0
307 4.62496 0.83479 89.87490 0 0 0
308 5.39578 1.37737 90.20871 0 0 0
309 6.16661 1.35958 90.84550 0 0 0
310 6.93743 1.90217 91.17931 0 0 0
311 7.70826 1.88438 91.81611 0 0 0
312 8.47909 2.42696 92.14991 0 0 0
313 9.24991 2.40917 92.78671 0 0 0
314 10.02074 2.95176 93.12052 0 0 0
315 10.79156 2.93397 93.75732 0 0 0
316 11.56239 3.47655 94.09112 0 0 0
317 12.33322 3.45876 94.72792 0 0 0
318 13.10404 4.00135 95.06173 0 0 0
319 13.87487 3.98356 95.69852 0 0 0
320 14.64569 4.52614 96.03233 0 0 0
321 15.41652 4.50835 96.66913 0 0 0
322 16.18735 5.05094 97.00293 0 0 0
323 16.95817 5.03315 97.63973 0 0 0
324 17.72900 5.57573 97.97354 0 0 0
325 18.49982 5.55794 98.61034 0 0 0
326 19.27065 6.10053 98.94414 0 0 0
327 20.04148 6.08274 99.58094 0 0 0
328 20.81230 6.62532 99.91475 0 0 0
329 21.58313 6.60753 100.55154 0 0 0
330 22.35395 7.15012 100.88535 0 0 0
331 23.12478 7.13233 101.52215 0 0 0
332 23.89561 7.67491 101.85596 0 0 0
333 24.66643 7.65712 102.49275 0 0 0
334 25.43726 8.19971 102.82656 0 0 0
335 26.20808 8.18192 103.46336 0 0 0
336 26.97891 8.72450 103.79716 0 0 0
337 27.74974 8.70671 104.43396 0 0 0
338 28.52056 9.24930 104.76777 0 0 0
339 29.29139 9.23150 105.40457 0 0 0
340 30.06221 9.77409 105.73837 0 0 0
341 30.83304 9.75630 106.37517 0 0 0
342 31.60386 10.29889 106.70898 0 0 0
343 32.37469 10.28109 107.34577 0 0 0
344 33.14552 10.82368 107.67958 0 0 0
345 33.91634 10.80589 108.31638 0 0 0
346 34.68717 11.34848 108.65018 0 0 0
347 35.45799 11.33068 109.28698 0 0 0
348 36.22882 11.87327 109.62079 0 0 0
349 36.99965 11.85548 110.25759 0 0 0
350 37.77047 12.39807 110.59139 0 0 0
351 38.54130 12.38027 111.22819 0 0 0
352 39.31212 12.92286 111.56200 0 0 0
353 40.08295 12.90507 112.19879 0 0 0
354 40.85378 13.44765 112.53260 0 0 0
355 41.62460 13.42986 113.16940 0 0 0
356 42.39543 13.97245 113.50321 0 0 0
357 43.16625 13.95466 114.14000 0 0 0
358 43.93708 14.49724 114.47381 0 0 0
359 44.70791 14.47945 115.11061 0 0 0
360 45.47873 15.02204 115.44441 0 0 0
361 46.24956 15.00425 116.08121 0 0 0
362 47.02038 15.54683 116.41502 0 0 0
363 47.79121 15.52904 117.05181 0 0 0
364 48.56204 16.07163 117.38562 0 0 0
365 49.33286 16.05384 118.02242 0 0 0
366 50.10369 16.59642 118.35623 0 0 0
367 50.87451 16.57863 118.99302 0 0 0
368 51.64534 17.12122 119.32683 0 0 0
369 52.41617 17.10343 119.96363 0 0 0
370 53.18699 17.64601 120.29743 0 0 0
371 53.95782 17.62822 120.93423 0 0 0
372 54.72864 18.17081 121.26804 0 0 0
373 55.49947 18.15302 121.90484 0 0 0
374 56.27030 18.69560 122.23864 0 0 0
375 57.04112 18.67781 122.87544 0 0 0
376 57.81195 19.22040 123.20925 0 0 0
377 58.58277 19.20261 123.84604 0 0 0
378 59.35360 19.74519 124.17985 0 0 0
379 60.12443 19.72740 124.81665 0 0 0
380 60.89525 20.26999 125.15045 0 0 0
381 61.66608 20.25220 125.78725 0 0 0
382 62.43690 20.79478 126.12106 0 0 0
383 63.20773 20.77699 126.75786 0 0 0
384 63.97856 21.31958 127.09166 0 0 0
385 64.74938 21.30178 127.72846 0 0 0
386 65.52021 21.84437 128.06227 0 0 0
387 66.29103 21.82658 128.69906 0 0 0
388 67.06186 22.36917 129.03287 0 0 0
389 67.83269 22.35137 129.66967 0 0 0
390 68.60351 22.89396 130.00348 0 0 0
391 69.37434 22.87617 130.64027 0 0 0
392 70.14516 23.41876 130.97408 0 0 0
393 70.91599 23.40096 131.61088 0 0 0
394 71.68682 23.94355 131.94468 0 0 0
395 72.45764 23.92576 132.58148 0 0 0
396 73.22847 24.46835 132.91529 0 0 0
397 73.99929 24.45055 133.55209 0 0 0
398 74.77012 24.99314 133.88589 0 0 0
399 75.54095 24.97535 134.52269 0 0 0
400 76.31177 25.51794 134.85650 0 0 0
401 77.08260 25.50014 135.49329 0 0 0
ITEM: TIMESTEP
1000
ITEM: NUMBER OF ATOMS
401
ITEM: BOX BOUNDS pp pp pp
-1.0000000000000000e+03 1.0000000000000000e+03
-1.0000000000000000e+03 1.0000000000000000e+03
-1.0000000000000000e+03 1.0000000000000000e+03
ITEM: ATOMS id x y z ix iy iz
1 0.46272 1.20595 4.00680 0 0 0
2 0.72260 0.46451 4.63737 0 0 0
3 0.67771 0.31479 5.58836 0 0 0
4 0.28338 -0.34005 6.37751 0 0 0
5 0.39267 0.49678 6.90778 0 0 0
6 1.31056 0.46440 7.36310 0 0 0
7 0.75618 0.20670 8.08264 0 0 0
8 0.69656 -0.27594 8.89781 0 0 0
9 0.09828 0.42552 9.07699 0 0 0
10 0.45513 1.19392 9.59201 0 0 0
11 1.05659 0.61867 10.14770 0 0 0
12 1.22168 0.19670 10.93681 0 0 0
13 1.05042 -0.29876 11.79973 0 0 0
14 0.84425 0.52792 12.26017 0 0 0
15 0.38413 0.92367 13.05897 0 0 0
16 0.45385 1.60824 13.79512 0 0 0
17 0.60322 1.16045 14.78073 0 0 0
18 0.50982 1.19921 15.71311 0 0 0
19 0.44863 0.99753 16.68550 0 0 0
20 0.33374 1.24526 17.61242 0 0 0
21 0.45402 1.35168 18.56249 0 0 0
22 0.68804 1.48269 19.53669 0 0 0
23 1.15601 1.51209 20.34768 0 0 0
24 1.48543 0.95944 21.14232 0 0 0
25 1.32405 0.45628 22.07794 0 0 0
26 1.42671 0.87104 22.98995 0 0 0
27 1.53449 0.96263 23.96499 0 0 0
28 1.18426 1.07621 24.95391 0 0 0
29 0.75290 0.79494 25.82791 0 0 0
30 0.33922 0.11708 26.38968 0 0 0
31 -0.10932 -0.35981 27.16777 0 0 0
32 0.10871 -0.79751 28.07383 0 0 0
33 0.31354 -0.93785 29.02439 0 0 0
34 0.63380 -1.01307 29.95262 0 0 0
35 0.66288 -0.21210 30.48399 0 0 0
36 0.62222 -0.12256 31.46916 0 0 0
37 0.91653 -0.68057 32.17058 0 0 0
38 0.34435 -1.06620 32.95895 0 0 0
39 0.34255 -1.05007 33.90162 0 0 0
40 0.32508 -0.96089 34.84319 0 0 0
41 0.48201 -1.37731 35.73449 0 0 0
42 0.26085 -1.27092 36.67820 0 0 0
43 0.68703 -0.91010 37.52529 0 0 0
44 0.91114 -1.29502 38.40731 0 0 0
45 0.55009 -0.78542 39.14388 0 0 0
46 0.96272 -0.67241 40.10721 0 0 0
47 0.34209 -0.17724 40.71179 0 0 0
48 0.24456 -0.08959 41.69192 0 0 0
49 0.43695 0.15359 42.59856 0 0 0
50 0.01982 0.52355 43.43086 0 0 0
51 -0.19040 0.68642 44.34653 0 0 0
52 -0.38177 0.11051 45.15627 0 0 0
53 -0.23587 -0.63078 45.79969 0 0 0
54 -0.09185 -0.67526 46.73574 0 0 0
55 -0.31595 -0.54388 47.68141 0 0 0
56 -0.64286 -0.49687 48.51336 0 0 0
57 -1.04159 -0.77957 49.30932 0 0 0
58 -0.77767 -0.92777 50.26082 0 0 0
59 -0.27123 -0.37136 51.00063 0 0 0
60 0.46185 0.23922 51.19059 0 0 0
61 0.88126 0.21417 52.11088 0 0 0
62 0.07243 -0.26310 52.44177 0 0 0
63 -0.43156 -0.99814 52.82665 0 0 0
64 -0.47098 -1.15597 53.76561 0 0 0
65 -0.48849 -1.29782 54.68874 0 0 0
66 -1.19782 -1.18977 55.35076 0 0 0
67 -1.46969 -0.82244 56.28070 0 0 0
68 -0.94779 -0.60247 57.05562 0 0 0
69 -0.92069 -0.13517 57.86141 0 0 0
70 -0.82967 -0.35151 58.93537 0 0 0
71 -1.12706 -0.45047 59.89885 0 0 0
72 -1.57154 -0.45948 60.79282 0 0 0
73 -1.44209 -0.14912 61.72108 0 0 0
74 -1.21231 -0.31826 62.63059 0 0 0
75 -1.55247 -0.56200 63.51079 0 0 0
76 -2.05108 -0.73132 64.32871 0 0 0
77 -1.86620 -0.55319 65.26858 0 0 0
78 -2.13675 -0.74274 66.17749 0 0 0
79 -1.74024 -0.56650 67.14159 0 0 0
80 -1.50859 -0.27930 68.06504 0 0 0
81 -1.93374 0.38023 68.64107 0 0 0
82 -2.20526 0.34119 69.55406 0 0 0
83 -1.92240 0.28037 70.56126 0 0 0
84 -1.73968 0.38531 71.55665 0 0 0
85 -2.18289 0.23223 72.38025 0 0 0
86 -1.96627 0.52756 73.25518 0 0 0
87 -1.61879 0.56711 74.25695 0 0 0
88 -1.39567 0.26437 75.36532 0 0 0
89 -0.98178 0.06560 76.25793 0 0 0
90 -0.34097 0.61428 76.81618 0 0 0
91 -0.25926 0.67145 77.83910 0 0 0
92 -0.47327 0.92424 78.82859 0 0 0
93 -0.36639 0.66952 79.76819 0 0 0
94 -0.08174 0.14411 80.57291 0 0 0
95 -0.48866 0.50762 81.32973 0 0 0
96 -0.51066 0.40311 82.26970 0 0 0
97 -0.48261 -0.19470 83.11806 0 0 0
98 -0.24739 0.23456 84.00590 0 0 0
99 0.15794 0.01711 84.88703 0 0 0
100 0.09519 -0.05613 85.94882 0 0 0
101 0.15428 -0.04840 87.03144 0 0 0
102 0.17106 -0.94765 86.66733 0 0 0
103 0.69949 -1.13197 85.81990 0 0 0
104 1.12493 -2.02472 85.50901 0 0 0
105 0.95750 -2.96228 85.38729 0 0 0
106 0.97677 -3.95322 85.18926 0 0 0
107 0.93556 -4.92166 84.89204 0 0 0
108 0.53375 -5.81730 84.92909 0 0 0
109 0.15081 -6.67646 84.58093 0 0 0
110 -0.54752 -7.10734 84.09027 0 0 0
111 -0.75208 -7.94849 84.47101 0 0 0
112 -0.47389 -8.83534 84.43622 0 0 0
113 0.33775 -9.44618 84.35622 0 0 0
114 -0.05771 -10.19777 84.90799 0 0 0
115 0.23886 -11.12345 84.82281 0 0 0
116 -0.11818 -12.02984 84.70502 0 0 0
117 0.53535 -12.82597 84.66176 0 0 0
118 0.10308 -13.69891 84.75121 0 0 0
119 0.38030 -14.48835 84.23677 0 0 0
120 0.23780 -15.44034 84.11248 0 0 0
121 0.80865 -16.29055 83.88954 0 0 0
122 0.82263 -17.30342 83.78653 0 0 0
123 0.12903 -17.87050 83.42396 0 0 0
124 0.45547 -18.68663 83.06419 0 0 0
125 1.13671 -19.41329 82.97381 0 0 0
126 1.38458 -20.19068 83.59373 0 0 0
127 1.60210 -21.13602 83.86683 0 0 0
128 1.78711 -22.12654 83.96760 0 0 0
129 2.01846 -23.07035 83.85541 0 0 0
130 2.12772 -24.07724 83.65590 0 0 0
131 2.04591 -24.90391 83.18063 0 0 0
132 1.64840 -25.76126 83.01725 0 0 0
133 2.01258 -26.86605 82.83992 0 0 0
134 2.37310 -27.79402 83.10370 0 0 0
135 2.70612 -28.65421 82.74346 0 0 0
136 3.09724 -29.46663 82.33548 0 0 0
137 2.96148 -30.44100 82.16574 0 0 0
138 3.41853 -31.22509 81.76115 0 0 0
139 3.47767 -32.08395 81.18599 0 0 0
140 3.41977 -33.11298 81.41351 0 0 0
141 3.85438 -33.92223 81.02113 0 0 0
142 4.05607 -34.88694 80.97742 0 0 0
143 3.77737 -35.80334 80.54752 0 0 0
144 3.74773 -36.72151 80.27616 0 0 0
145 3.47835 -37.67275 80.18684 0 0 0
146 3.74116 -38.58477 80.08611 0 0 0
147 3.45421 -39.53811 80.02983 0 0 0
148 3.94336 -40.29433 79.43775 0 0 0
149 4.18711 -41.06506 78.87425 0 0 0
150 3.84596 -41.92145 78.66124 0 0 0
151 4.01814 -42.87632 78.80752 0 0 0
152 3.78815 -43.83171 78.78599 0 0 0
153 3.72820 -44.74214 78.36977 0 0 0
154 4.08076 -45.83306 78.39797 0 0 0
155 4.68218 -46.63883 78.28920 0 0 0
156 5.22152 -47.46385 78.27380 0 0 0
157 4.93258 -48.39115 78.26205 0 0 0
158 5.29503 -49.02412 77.53241 0 0 0
159 5.49522 -50.02468 77.49831 0 0 0
160 5.49463 -50.79682 76.97802 0 0 0
161 5.45330 -51.63774 77.42233 0 0 0
162 5.08094 -52.31793 77.98479 0 0 0
163 4.70331 -53.23473 77.97427 0 0 0
164 4.40207 -54.17954 77.78388 0 0 0
165 4.33391 -55.14834 78.15837 0 0 0
166 4.02766 -56.04847 77.93515 0 0 0
167 4.24409 -56.28574 76.96154 0 0 0
168 4.52761 -56.99507 76.34891 0 0 0
169 4.78139 -57.98820 76.26264 0 0 0
170 4.93886 -58.93972 76.12999 0 0 0
171 5.18887 -59.84595 76.38258 0 0 0
172 5.70245 -60.58371 76.61320 0 0 0
173 5.56665 -61.26293 75.96307 0 0 0
174 6.11783 -62.11128 75.87153 0 0 0
175 6.68787 -62.95567 76.08825 0 0 0
176 6.96112 -63.84486 75.77258 0 0 0
177 6.82546 -64.79692 76.06225 0 0 0
178 6.85901 -65.79616 75.76070 0 0 0
179 6.57590 -66.77002 75.79592 0 0 0
180 6.63635 -67.66953 75.45050 0 0 0
181 6.14479 -68.50725 75.05473 0 0 0
182 5.69356 -69.27891 74.66185 0 0 0
183 5.63790 -70.27496 74.52779 0 0 0
184 6.33392 -70.95313 74.22262 0 0 0
185 6.12504 -71.83948 73.74294 0 0 0
186 5.30926 -72.30778 73.60352 0 0 0
187 5.11843 -72.99905 74.25388 0 0 0
188 5.11499 -74.05061 74.41331 0 0 0
189 5.04678 -75.01086 74.71028 0 0 0
190 4.64590 -75.73326 74.16996 0 0 0
191 5.00616 -76.46264 73.64690 0 0 0
192 4.44028 -77.25898 73.61852 0 0 0
193 4.76472 -78.13029 73.60503 0 0 0
194 5.04368 -79.14020 73.63881 0 0 0
195 5.16093 -80.02790 74.12523 0 0 0
196 5.91191 -80.60274 73.67493 0 0 0
197 5.46604 -81.45430 73.56636 0 0 0
198 5.00712 -81.76190 72.80878 0 0 0
199 5.49147 -82.38142 72.22970 0 0 0
200 5.66620 -83.35510 72.23023 0 0 0
201 6.18234 -84.30086 72.34337 0 0 0
202 -0.64273 -0.04183 87.54892 0 0 0
203 -1.47314 0.15699 88.04346 0 0 0
204 -2.44855 0.42540 87.99490 0 0 0
205 -3.21501 0.87192 88.53389 0 0 0
206 -3.96523 1.08448 89.26776 0 0 0
207 -4.94458 0.92577 89.27465 0 0 0
208 -5.84959 1.32291 89.63392 0 0 0
209 -6.74047 1.73023 89.85369 0 0 0
210 -7.63002 2.03967 90.14628 0 0 0
211 -8.61673 1.83321 90.30505 0 0 0
212 -9.56745 2.06976 90.51170 0 0 0
213 -10.50066 2.06027 90.83131 0 0 0
214 -11.29959 2.20550 91.39663 0 0 0
215 -12.30615 2.26138 91.34455 0 0 0
216 -13.27262 2.17346 91.47682 0 0 0
217 -14.19021 2.13092 91.86976 0 0 0
218 -15.04661 2.54540 92.35095 0 0 0
219 -15.97763 2.80043 92.70690 0 0 0
220 -16.63001 3.53166 92.98471 0 0 0
221 -17.39486 3.98442 93.41661 0 0 0
222 -17.91512 3.64532 94.28042 0 0 0
223 -18.91118 3.52775 94.55691 0 0 0
224 -19.79369 3.72966 94.86305 0 0 0
225 -20.87756 3.59804 95.10568 0 0 0
226 -21.57954 3.49131 95.77985 0 0 0
227 -22.37414 3.53386 96.35895 0 0 0
228 -23.30866 3.52449 96.60892 0 0 0
229 -24.21670 3.65748 96.91086 0 0 0
230 -24.73130 3.56035 97.72208 0 0 0
231 -25.59217 3.49931 98.27896 0 0 0
232 -26.52709 3.58786 98.54314 0 0 0
233 -27.18854 4.07027 99.01146 0 0 0
234 -27.99524 4.45794 99.24651 0 0 0
235 -28.77618 4.75814 99.66968 0 0 0
236 -29.78087 4.74075 100.15154 0 0 0
237 -30.50976 4.68295 100.80389 0 0 0
238 -31.14714 4.50423 101.59132 0 0 0
239 -31.91752 4.48093 102.16785 0 0 0
240 -32.64886 4.39148 102.80562 0 0 0
241 -33.64761 4.40721 103.01175 0 0 0
242 -34.36040 4.40908 103.71114 0 0 0
243 -35.16522 4.41858 104.26219 0 0 0
244 -36.16603 4.77240 104.24735 0 0 0
245 -37.10162 4.60718 104.48378 0 0 0
246 -37.98871 4.89081 104.85130 0 0 0
247 -38.79801 4.89037 105.42931 0 0 0
248 -39.58521 5.05647 105.91468 0 0 0
249 -40.15162 5.41496 106.63654 0 0 0
250 -41.15188 5.56550 106.87231 0 0 0
251 -41.95840 5.24025 107.13440 0 0 0
252 -42.88109 5.41913 107.45828 0 0 0
253 -43.75022 5.76465 108.01955 0 0 0
254 -44.71028 5.63220 108.37869 0 0 0
255 -45.32173 5.93288 109.10785 0 0 0
256 -46.33093 6.12785 109.14097 0 0 0
257 -47.13039 6.61597 109.42458 0 0 0
258 -47.68293 7.00950 110.07759 0 0 0
259 -48.26712 7.74938 110.23664 0 0 0
260 -49.35866 8.06008 110.11035 0 0 0
261 -49.96353 8.36509 110.90762 0 0 0
262 -50.84273 8.61051 111.36001 0 0 0
263 -51.61744 8.72598 111.94253 0 0 0
264 -52.38265 9.00853 112.51087 0 0 0
265 -53.18070 9.26104 112.96563 0 0 0
266 -53.82071 9.54960 113.70738 0 0 0
267 -54.66934 10.11389 114.02114 0 0 0
268 -55.08881 10.92354 114.37764 0 0 0
269 -55.77815 11.49861 114.78753 0 0 0
270 -56.68212 11.28039 115.15839 0 0 0
271 -57.50800 11.39084 115.63029 0 0 0
272 -58.38503 11.56605 116.18571 0 0 0
273 -59.00416 11.50171 116.99568 0 0 0
274 -59.62098 11.65880 117.78883 0 0 0
275 -60.25107 12.00159 118.47006 0 0 0
276 -61.24061 12.02474 118.86448 0 0 0
277 -62.18698 11.74178 118.77298 0 0 0
278 -63.16768 12.00372 118.88252 0 0 0
279 -64.16224 12.00043 118.83861 0 0 0
280 -64.73863 12.03613 119.67715 0 0 0
281 -65.20077 12.29960 120.53112 0 0 0
282 -65.94986 12.36636 121.26586 0 0 0
283 -66.90510 12.19939 121.73559 0 0 0
284 -67.66136 11.64288 121.83428 0 0 0
285 -68.38413 11.00558 121.96859 0 0 0
286 -68.96315 11.43852 122.65451 0 0 0
287 -69.68655 11.95250 122.87169 0 0 0
288 -70.47697 12.17969 123.47521 0 0 0
289 -71.49055 12.06027 123.65644 0 0 0
290 -72.37197 12.45548 123.52207 0 0 0
291 -73.18891 12.75378 124.05118 0 0 0
292 -73.99591 13.20585 123.92829 0 0 0
293 -74.92785 13.54759 123.67888 0 0 0
294 -75.66330 13.20619 124.19710 0 0 0
295 -76.22366 13.31135 125.03545 0 0 0
296 -77.09212 13.14977 125.39304 0 0 0
297 -77.76071 13.73487 125.77740 0 0 0
298 -78.34132 14.06656 126.49925 0 0 0
299 -79.07153 13.49388 126.54009 0 0 0
300 -79.83872 12.83496 126.68709 0 0 0
301 -80.40354 11.97855 126.46051 0 0 0
302 0.87233 0.19234 87.63178 0 0 0
303 1.63192 0.60975 88.22681 0 0 0
304 2.57397 0.92532 88.50232 0 0 0
305 3.48302 0.72128 88.75400 0 0 0
306 4.30155 0.77985 89.30211 0 0 0
307 5.36661 0.77723 89.17404 0 0 0
308 5.95593 1.26666 89.87214 0 0 0
309 6.64908 1.78631 90.47125 0 0 0
310 7.56502 2.17479 90.88261 0 0 0
311 8.53268 2.25850 91.28625 0 0 0
312 9.16475 2.33166 92.05804 0 0 0
313 9.75310 2.44705 92.81874 0 0 0
314 10.54943 2.26884 93.30484 0 0 0
315 11.20427 2.11683 94.06248 0 0 0
316 12.01458 2.58884 94.56912 0 0 0
317 12.92879 2.91343 94.72814 0 0 0
318 13.66536 3.47431 95.16359 0 0 0
319 14.59333 3.43444 95.41027 0 0 0
320 15.28864 3.85346 95.95228 0 0 0
321 16.09537 4.19499 96.55395 0 0 0
322 16.78616 4.40090 97.18754 0 0 0
323 17.45974 4.81395 97.77429 0 0 0
324 18.32530 5.25615 97.93494 0 0 0
325 19.19989 5.37444 98.43506 0 0 0
326 19.67585 6.07766 99.13090 0 0 0
327 20.53108 6.29284 99.66352 0 0 0
328 20.99253 5.98769 100.57415 0 0 0
329 21.63260 6.25559 101.40551 0 0 0
330 22.52195 6.55042 101.88689 0 0 0
331 23.26571 6.68238 102.59029 0 0 0
332 23.88075 6.96751 103.27594 0 0 0
333 24.69220 6.89521 103.76360 0 0 0
334 25.25735 7.27835 104.52583 0 0 0
335 25.58055 8.03376 105.00949 0 0 0
336 26.04208 8.34638 105.83608 0 0 0
337 26.99508 8.64776 105.97946 0 0 0
338 27.76460 8.51200 106.73427 0 0 0
339 28.62807 8.56162 107.11907 0 0 0
340 29.35774 9.20605 107.03431 0 0 0
341 30.16139 9.30188 107.54770 0 0 0
342 30.60516 10.17466 107.88173 0 0 0
343 31.50294 10.36576 108.13728 0 0 0
344 32.09694 10.92019 108.74407 0 0 0
345 33.05383 11.02938 108.98397 0 0 0
346 33.92500 11.26480 108.72415 0 0 0
347 34.54126 11.49786 109.49432 0 0 0
348 35.39218 11.73680 109.99709 0 0 0
349 36.31192 11.95904 110.28655 0 0 0
350 37.01367 12.58262 110.65304 0 0 0
351 37.79230 12.76305 111.10745 0 0 0
352 38.74136 12.46149 111.23901 0 0 0
353 39.23542 13.15437 111.67999 0 0 0
354 40.06886 13.04959 112.21980 0 0 0
355 40.81127 13.40945 112.75159 0 0 0
356 41.66173 13.83244 113.22982 0 0 0
357 42.43455 13.88785 113.85395 0 0 0
358 43.21001 13.82735 114.46938 0 0 0
359 43.90813 13.79133 115.16569 0 0 0
360 44.47575 14.14375 115.87923 0 0 0
361 45.06390 14.93985 116.26422 0 0 0
362 45.97184 14.64227 116.49742 0 0 0
363 46.65242 14.84922 117.16228 0 0 0
364 47.50951 15.03414 117.59176 0 0 0
365 48.47291 14.96633 117.75041 0 0 0
366 49.20749 15.34235 118.32097 0 0 0
367 50.11019 15.55377 118.64773 0 0 0
368 50.33523 15.75082 119.58106 0 0 0
369 51.03415 16.24839 120.14013 0 0 0
370 51.51989 16.83440 120.74279 0 0 0
371 52.34672 17.24540 121.07851 0 0 0
372 53.27349 17.11882 121.25205 0 0 0
373 54.18039 17.18216 121.79962 0 0 0
374 54.81166 17.44346 122.44776 0 0 0
375 55.79141 17.84374 122.40303 0 0 0
376 56.76171 17.45982 122.45864 0 0 0
377 57.64015 17.76709 122.94045 0 0 0
378 58.40579 17.83395 123.65159 0 0 0
379 59.18581 18.25218 124.01255 0 0 0
380 59.86693 18.90539 124.30610 0 0 0
381 60.62721 19.17517 124.91385 0 0 0
382 61.16724 19.90915 125.29696 0 0 0
383 61.87359 20.47583 125.55093 0 0 0
384 62.26232 21.28046 126.07596 0 0 0
385 63.05594 21.76464 126.19965 0 0 0
386 63.25683 21.20202 127.05378 0 0 0
387 63.87077 21.53864 127.84146 0 0 0
388 64.94267 21.22541 128.01422 0 0 0
389 65.60600 21.86711 128.19965 0 0 0
390 65.92796 21.11459 128.76094 0 0 0
391 66.53685 21.63923 129.33440 0 0 0
392 67.48184 22.02952 129.21530 0 0 0
393 68.02424 22.01062 130.02256 0 0 0
394 68.82214 22.54023 130.04666 0 0 0
395 69.75324 22.90843 129.87029 0 0 0
396 70.47512 23.05720 130.58020 0 0 0
397 71.05495 23.25515 131.36411 0 0 0
398 70.81180 23.60720 132.20265 0 0 0
399 71.10114 24.49313 131.95614 0 0 0
400 71.99056 24.68130 131.62796 0 0 0
401 72.33079 25.31693 132.27308 0 0 0
ITEM: TIMESTEP
2000
ITEM: NUMBER OF ATOMS
401
ITEM: BOX BOUNDS pp pp pp
-1.0000000000000000e+03 1.0000000000000000e+03