ITEM: TIMESTEP
0
ITEM: NUMBER OF ATOMS
101
ITEM: BOX BOUNDS pp pp pp
-1.0000000000000000e+03 1.0000000000000000e+03
-1.0000000000000000e+03 1.0000000000000000e+03
-1.0000000000000000e+03 1.0000000000000000e+03
ITEM: ATOMS id x y z ix iy iz
1 0.00000 0.00000 0.00000 0 0 0
2 0.00000 0.00000 1.00000 0 0 0
3 0.00000 -0.50000 1.86603 0 0 0
4 0.00000 0.00000 2.73205 0 0 0
5 0.00000 -0.50000 3.59808 0 0 0
6 0.00000 0.00000 4.46410 0 0 0
7 0.00000 -0.50000 5.33013 0 0 0
8 0.00000 0.00000 6.19615 0 0 0
9 0.00000 -0.50000 7.06218 0 0 0
10 0.00000 0.00000 7.92820 0 0 0
11 0.00000 -0.50000 8.79423 0 0 0
12 0.00000 0.00000 9.66025 0 0 0
13 0.00000 -0.50000 10.52628 0 0 0
14 0.00000 0.00000 11.39230 0 0 0
15 0.00000 -0.50000 12.25833 0 0 0
16 0.00000 0.00000 13.12436 0 0 0
17 0.00000 -0.50000 13.99038 0 0 0
18 0.00000 0.00000 14.85641 0 0 0
19 0.00000 -0.50000 15.72243 0 0 0
20 0.00000 0.00000 16.58846 0 0 0
21 0.00000 -0.50000 17.45448 0 0 0
22 0.00000 0.00000 18.32051 0 0 0
23 0.00000 -0.50000 19.18653 0 0 0
24 0.00000 0.00000 20.05256 0 0 0
25 0.00000 -0.50000 20.91858 0 0 0
26 0.00000 0.00000 21.78461 0 0 0
27 -0.89332 -0.09369 22.22415 0 0 0
28 -1.78665 -0.39460 22.55796 0 0 0
29 -2.67997 -0.25596 22.98545 0 0 0
30 -3.57330 -0.55687 23.31926 0 0 0
31 -4.46662 -0.41824 23.74675 0 0 0
32 -5.35995 -0.71914 24.08056 0 0 0
33 -6.25327 -0.58051 24.50806 0 0 0
34 -7.14659 -0.88142 24.84186 0 0 0
35 -8.03992 -0.74279 25.26936 0 0 0
36 -8.93324 -1.04369 25.60317 0 0 0
37 -9.82657 -0.90506 26.03066 0 0 0
38 -10.71989 -1.20597 26.36447 0 0 0
39 -11.61322 -1.06734 26.79197 0 0 0
40 -12.50654 -1.36824 27.12577 0 0 0
41 -13.39986 -1.22961 27.55327 0 0 0
42 -14.29319 -1.53052 27.88708 0 0 0
43 -15.18651 -1.39189 28.31457 0 0 0
44 -16.07984 -1.69279 28.64838 0 0 0
45 -16.97316 -1.55416 29.07588 0 0 0
46 -17.86649 -1.85507 29.40968 0 0 0
47 -18.75981 -1.71644 29.83718 0 0 0
48 -19.65313 -2.01734 30.17098 0 0 0
49 -20.54646 -1.87871 30.59848 0 0 0
50 -21.43978 -2.17962 30.93229 0 0 0
51 -22.33311 -2.04098 31.35978 0 0 0
52 0.18607 0.96719 21.61165 0 0 0
53 0.37214 1.89129 21.94545 0 0 0
54 0.55821 2.64242 21.31207 0 0 0
55 0.74428 3.56652 21.64588 0 0 0
56 0.93035 4.31765 21.01249 0 0 0
57 1.11642 5.24174 21.34630 0 0 0
58 1.30249 5.99288 20.71291 0 0 0
59 1.48856 6.91697 21.04672 0 0 0
60 1.67462 7.66810 20.41333 0 0 0
61 1.86069 8.59220 20.74714 0 0 0
62 2.04676 9.34333 20.11375 0 0 0
63 2.23283 10.26742 20.44756 0 0 0
64 2.41890 11.01856 19.81417 0 0 0
65 2.60497 11.94265 20.14798 0 0 0
66 2.79104 12.69378 19.51459 0 0 0
67 2.97711 13.61788 19.84840 0 0 0
68 3.16318 14.36901 19.21501 0 0 0
69 3.34925 15.29311 19.54882 0 0 0
70 3.53532 16.04424 18.91543 0 0 0
71 3.72139 16.96833 19.24924 0 0 0
72 3.90746 17.71947 18.61585 0 0 0
73 4.09353 18.64356 18.94966 0 0 0
74 4.27960 19.39469 18.31628 0 0 0
75 4.46567 20.31879 18.65008 0 0 0
76 4.65174 21.06992 18.01670 0 0 0
77 0.70725 -0.37279 22.38529 0 0 0
78 1.41451 -0.99598 22.71910 0 0 0
79 2.12176 -1.01849 23.42570 0 0 0
80 2.82902 -1.64168 23.75950 0 0 0
81 3.53627 -1.66419 24.46610 0 0 0
82 4.24353 -2.28738 24.79991 0 0 0
83 4.95078 -2.30988 25.50651 0 0 0
84 5.65804 -2.93307 25.84032 0 0 0
85 6.36529 -2.95558 26.54692 0 0 0
86 7.07255 -3.57877 26.88072 0 0 0
87 7.77980 -3.60128 27.58732 0 0 0
88 8.48706 -4.22447 27.92113 0 0 0
89 9.19431 -4.24698 28.62773 0 0 0
90 9.90157 -4.87016 28.96154 0 0 0
91 10.60882 -4.89267 29.66814 0 0 0
92 11.31608 -5.51586 30.00195 0 0 0
93 12.02333 -5.53837 30.70855 0 0 0
94 12.73059 -6.16156 31.04235 0 0 0
95 13.43784 -6.18407 31.74895 0 0 0
96 14.14510 -6.80726 32.08276 0 0 0
97 14.85235 -6.82976 32.78936 0 0 0
98 15.55961 -7.45295 33.12317 0 0 0
99 16.26686 -7.47546 33.82977 0 0 0
100 16.97412 -8.09865 34.16357 0 0 0
101 17.68137 -8.12116 34.87017 0 0 0
ITEM: TIMESTEP
1000
ITEM: NUMBER OF ATOMS
101
ITEM: BOX BOUNDS pp pp pp
-1.0000000000000000e+03 1.0000000000000000e+03
-1.0000000000000000e+03 1.0000000000000000e+03
-1.0000000000000000e+03 1.0000000000000000e+03
ITEM: ATOMS id x y z ix iy iz
1 -0.82763 2.30361 5.49151 0 0 0
2 -0.21249 1.76804 4.87365 0 0 0
3 -0.75505 1.12198 4.39476 0 0 0
4 -1.32344 0.97574 5.18153 0 0 0
5 -1.96705 0.46909 5.66880 0 0 0
6 -2.69462 -0.08288 6.11726 0 0 0
7 -2.96092 -0.61004 6.89999 0 0 0
8 -3.02041 -1.35600 7.48795 0 0 0
9 -2.92257 -1.45814 8.49763 0 0 0
10 -2.98678 -0.96778 9.33381 0 0 0
11 -3.10060 -0.42385 10.09546 0 0 0
12 -3.32469 -0.67739 10.95144 0 0 0
13 -3.44836 -1.10546 11.83623 0 0 0
14 -3.60874 -2.03798 12.19997 0 0 0
15 -3.57222 -2.11858 13.18291 0 0 0
16 -3.61792 -1.73276 14.07080 0 0 0
17 -3.38712 -1.75674 14.98956 0 0 0
18 -3.06589 -2.60009 15.49945 0 0 0
19 -2.91533 -2.26504 16.36199 0 0 0
20 -2.82330 -1.73623 17.22435 0 0 0
21 -3.37422 -1.74549 18.04999 0 0 0
22 -2.83373 -1.43494 18.86703 0 0 0
23 -2.83361 -1.01864 19.79311 0 0 0
24 -2.52892 -0.30920 20.37414 0 0 0
25 -2.27429 -0.65661 21.33763 0 0 0
26 -1.71944 0.10037 21.83592 0 0 0
27 -1.61248 0.91278 22.43863 0 0 0
28 -2.29138 0.40403 23.01381 0 0 0
29 -3.08379 0.67762 23.51264 0 0 0
30 -3.78969 1.35372 23.78247 0 0 0
31 -4.34744 0.49922 23.61266 0 0 0
32 -5.31541 0.30790 23.76705 0 0 0
33 -6.03657 0.31633 24.45889 0 0 0
34 -6.94050 -0.03351 24.27876 0 0 0
35 -7.47519 -0.64503 24.77584 0 0 0
36 -7.95695 -1.41042 25.16800 0 0 0
37 -8.37359 -1.64932 26.00199 0 0 0
38 -8.84015 -1.81090 26.86675 0 0 0
39 -9.68318 -2.33752 26.84317 0 0 0
40 -10.69250 -2.38884 26.79202 0 0 0
41 -11.46691 -2.57946 27.32589 0 0 0
42 -11.38035 -1.97212 28.14773 0 0 0
43 -11.84211 -1.31765 28.75768 0 0 0
44 -12.49922 -0.64489 28.89098 0 0 0
45 -13.18249 -1.25995 28.80932 0 0 0
46 -13.42251 -0.73174 29.53910 0 0 0
47 -13.62429 -0.75837 30.46185 0 0 0
48 -14.44681 -0.77951 29.91814 0 0 0
49 -15.30231 -0.49280 30.33516 0 0 0
50 -16.22407 -0.41982 30.53922 0 0 0
51 -16.12912 -0.07892 29.64215 0 0 0
52 -1.13159 0.64064 21.11265 0 0 0
53 -1.41964 1.58091 21.01219 0 0 0
54 -1.37157 2.52903 21.07683 0 0 0
55 -0.97735 3.38960 20.82230 0 0 0
56 -0.42046 4.22205 20.59361 0 0 0
57 -0.20269 5.16121 20.34945 0 0 0
58 -0.29765 6.15255 20.62404 0 0 0
59 0.21223 6.97023 20.60694 0 0 0
60 0.61058 7.94378 20.48387 0 0 0
61 1.02191 8.89266 20.70839 0 0 0
62 1.12056 9.66676 20.06712 0 0 0
63 1.66403 10.46833 19.80633 0 0 0
64 1.95825 11.37168 20.31566 0 0 0
65 2.50783 12.18841 20.28999 0 0 0
66 3.50566 12.40195 20.42282 0 0 0
67 4.19554 12.90378 20.86545 0 0 0
68 4.75689 13.49302 20.29093 0 0 0
69 5.50767 13.60227 19.69067 0 0 0
70 5.64692 14.62448 19.65369 0 0 0
71 4.86123 15.08006 19.16056 0 0 0
72 4.75435 15.71040 18.37387 0 0 0
73 5.31143 16.18886 18.98810 0 0 0
74 5.86057 16.93409 18.97960 0 0 0
75 6.72792 17.27644 18.62077 0 0 0
76 6.91244 17.98882 17.96625 0 0 0
77 -1.51516 -0.38904 22.67490 0 0 0
78 -0.60627 -0.06665 22.99146 0 0 0
79 0.31985 0.01943 23.13060 0 0 0
80 1.13261 -0.44624 23.33170 0 0 0
81 1.75211 -1.17859 23.47890 0 0 0
82 1.89946 -1.65005 24.43213 0 0 0
83 2.24537 -2.52347 24.72491 0 0 0
84 2.88030 -2.55375 25.56703 0 0 0
85 3.27894 -3.41354 25.16432 0 0 0
86 4.10519 -3.87655 25.34127 0 0 0
87 4.84518 -3.68382 26.05213 0 0 0
88 5.36648 -3.79114 26.85654 0 0 0
89 5.97761 -4.33921 27.36536 0 0 0
90 6.72542 -3.83039 27.99933 0 0 0
91 7.12911 -3.05371 28.53580 0 0 0
92 7.70876 -3.80842 28.76086 0 0 0
93 7.61788 -4.60402 29.28397 0 0 0
94 8.52484 -4.69828 29.50615 0 0 0
95 8.95560 -3.84815 29.59311 0 0 0
96 9.86896 -4.20199 29.55303 0 0 0
97 10.67353 -4.80093 29.52090 0 0 0
98 11.03252 -5.56924 30.15603 0 0 0
99 11.07901 -5.84149 31.08166 0 0 0
100 10.95839 -6.78879 31.48121 0 0 0
101 10.62120 -7.44521 32.16358 0 0 0
ITEM: TIMESTEP
2000
ITEM: NUMBER OF ATOMS
101
ITEM: BOX BOUNDS pp pp pp
-1.0000000000000000e+03 1.0000000000000000e+03
-1.0000000000000000e+03 1.0000000000000000e+03
-1.0000000000000000e+03 1.0000000000000000e+03
ITEM: ATOMS id x y z ix iy iz
1 0.05872 4.01937 6.51727 0 0 0
2 -0.31648 3.14427 6.41006 0 0 0
3 -1.23694 3.36626 6.60423 0 0 0
4 -1.55350 2.80609 7.35998 0 0 0
5 -1.90966 2.32795 8.15818 0 0 0
6 -2.53122 1.77935 8.68025 0 0 0
7 -2.94632 1.77093 9.54434 0 0 0
8 -3.84060 2.07539 9.54934 0 0 0
9 -4.22118 2.00906 10.41504 0 0 0
10 -3.73310 1.47565 11.08133 0 0 0
11 -4.24876 1.02664 11.85828 0 0 0
12 -3.49011 0.73055 12.46857 0 0 0
13 -3.11463 0.37639 13.27582 0 0 0
14 -3.00081 -0.32844 13.97965 0 0 0
15 -2.49829 -0.91135 14.53449 0 0 0
16 -1.65524 -0.36025 14.86587 0 0 0
17 -1.21926 0.00593 15.60254 0 0 0
18 -0.72609 0.43395 16.24898 0 0 0
19 -0.26300 0.52180 17.14268 0 0 0
20 -0.02799 0.53906 18.10995 0 0 0
21 -0.41232 0.50072 19.05222 0 0 0
22 -1.08120 0.51753 19.85113 0 0 0
23 -1.42649 0.52901 20.70440 0 0 0
24 -0.62912 0.88697 21.04998 0 0 0
25 0.11480 0.48550 21.52918 0 0 0
26 -0.65208 0.46698 22.16500 0 0 0
27 -1.37559 0.57190 22.73200 0 0 0
28 -1.97876 -0.21664 22.89155 0 0 0
29 -1.32887 -0.91040 23.16216 0 0 0
30 -2.06719 -1.43240 23.59519 0 0 0
31 -2.63947 -2.29816 23.71715 0 0 0
32 -3.67081 -2.14013 23.55010 0 0 0
33 -4.26460 -2.34474 24.38404 0 0 0
34 -3.98015 -2.36107 25.37301 0 0 0
35 -4.33531 -1.46899 25.47309 0 0 0
36 -4.55711 -1.27936 26.43727 0 0 0
37 -5.24691 -0.71406 26.18042 0 0 0
38 -5.98491 -0.23101 26.85165 0 0 0
39 -6.82966 -0.24220 27.41617 0 0 0
40 -7.87171 -0.35398 27.65194 0 0 0
41 -8.83476 -0.39874 27.89366 0 0 0
42 -9.48680 -1.05783 27.95306 0 0 0
43 -10.38326 -1.02785 27.55828 0 0 0
44 -11.21511 -1.55389 27.52739 0 0 0
45 -11.81648 -1.78842 28.21598 0 0 0
46 -12.29767 -2.61987 28.53772 0 0 0
47 -13.12609 -2.74450 28.99360 0 0 0
48 -13.87883 -2.12706 28.97250 0 0 0
49 -14.61456 -2.75863 28.83829 0 0 0
50 -15.56382 -2.74128 28.58763 0 0 0
51 -15.37978 -1.83630 28.27890 0 0 0
52 -0.10598 1.28111 22.21878 0 0 0
53 -0.62469 2.07439 21.90715 0 0 0
54 -0.96422 2.97070 21.67541 0 0 0
55 -1.29540 3.88235 21.48921 0 0 0
56 -2.06161 4.54466 21.40291 0 0 0
57 -2.05660 5.24345 20.68719 0 0 0
58 -1.79697 6.07253 20.24343 0 0 0
59 -1.19221 6.72248 20.77008 0 0 0
60 -0.31584 7.19632 20.48996 0 0 0
61 0.06793 8.02558 20.15662 0 0 0
62 0.19983 8.84212 19.59845 0 0 0
63 0.58430 9.40643 18.88997 0 0 0
64 -0.34540 9.66568 19.19038 0 0 0
65 0.24488 10.41673 19.21711 0 0 0
66 0.77726 11.26167 19.57339 0 0 0
67 1.45514 11.85179 19.16964 0 0 0
68 2.35524 12.13261 19.08768 0 0 0
69 3.00961 12.88688 18.89493 0 0 0
70 3.73747 13.57207 18.95150 0 0 0
71 4.58347 13.85442 19.46209 0 0 0
72 5.43013 14.27265 19.74706 0 0 0
73 6.29336 14.39117 19.28844 0 0 0
74 6.45780 14.42997 18.37703 0 0 0
75 5.99354 13.95967 17.61309 0 0 0
76 5.94799 13.77711 16.58138 0 0 0
77 -0.66566 -0.48070 22.37858 0 0 0
78 0.24326 -0.77807 22.76344 0 0 0
79 -0.24462 -0.44509 23.49345 0 0 0
80 0.54791 0.15709 23.49459 0 0 0
81 0.71467 -0.69222 23.98365 0 0 0
82 1.05859 -1.52749 24.35041 0 0 0
83 1.63166 -1.63217 23.61096 0 0 0
84 1.98323 -2.28091 24.20357 0 0 0
85 2.47800 -2.45892 25.14636 0 0 0
86 3.39383 -2.32064 24.83518 0 0 0
87 3.02645 -1.60671 25.39011 0 0 0
88 3.20842 -1.35155 26.34652 0 0 0
89 4.03148 -1.44326 27.01004 0 0 0
90 4.86595 -0.98990 27.07461 0 0 0
91 5.01058 -1.00618 28.04869 0 0 0
92 5.68759 -1.61954 27.83904 0 0 0
93 6.43217 -1.83398 28.41611 0 0 0
94 7.13972 -2.37246 27.90737 0 0 0
95 7.02633 -3.30040 27.93232 0 0 0
96 7.94213 -3.52337 28.39417 0 0 0
97 8.97560 -3.44427 28.32618 0 0 0
98 8.73254 -3.94377 29.18064 0 0 0
99 9.69205 -3.96781 29.28480 0 0 0
100 9.76262 -4.24552 28.44660 0 0 0
101 9.56377 -4.61144 27.53195 0 0 0
ITEM: TIMESTEP
3000
ITEM: NUMBER OF ATOMS
101
ITEM: BOX BOUNDS pp pp pp
-1.0000000000000000e+03 1.0000000000000000e+03
-1.0000000000000000e+03 1.0000000000000000e+03
-1.0000000000000000e+03 1.0000000000000000e+03
ITEM: ATOMS id x y z ix iy iz
1 -0.65053 -0.00762 4.66078 0 0 0
2 -0.55223 -0.77983 5.35340 0 0 0
3 -1.33107 -0.31273 5.80290 0 0 0
4 -1.69485 0.19479 6.65395 0 0 0
5 -2.29418 0.94573 6.66038 0 0 0
6 -2.69498 0.94400 7.54822 0 0 0
7 -2.50076 1.11443 8.57225 0 0 0
8 -1.99274 0.58406 9.24399 0 0 0
9 -1.67914 0.23034 10.05611 0 0 0
10 -1.82277 0.62148 10.90011 0 0 0
11 -1.94284 -0.32632 11.07442 0 0 0
12 -2.51128 -0.10618 11.88030 0 0 0
13 -2.29360 0.02417 12.84640 0 0 0
14 -2.37313 0.20993 13.78120 0 0 0
15 -1.66424 0.61275 14.37944 0 0 0
16 -1.39113 0.61156 15.36697 0 0 0
17 -0.84250 0.76045 16.19197 0 0 0
18 -0.22652 0.58962 16.97015 0 0 0
19 0.22108 1.26273 17.54679 0 0 0
20 -0.06779 1.73229 18.34909 0 0 0
21 -0.07251 1.19544 19.17261 0 0 0
22 0.21317 0.88031 20.00655 0 0 0
23 0.01388 0.01790 20.27843 0 0 0
24 -0.39196 -0.51066 20.99650 0 0 0
25 0.53084 -0.65751 21.29243 0 0 0
26 0.55955 -0.27910 22.22698 0 0 0
27 -0.21639 -0.15809 22.75120 0 0 0
28 -1.04858 -0.60975 22.98535 0 0 0
29 -1.97731 -0.43366 23.13494 0 0 0
30 -2.83753 -0.90615 23.23620 0 0 0
31 -3.76861 -0.70532 23.52307 0 0 0
32 -4.16662 0.20181 23.67149 0 0 0
33 -4.83881 -0.18447 24.28079 0 0 0
34 -4.83429 -1.07578 24.80007 0 0 0
35 -4.66442 -1.98933 24.83436 0 0 0
36 -5.47264 -2.27261 25.24327 0 0 0
37 -6.43878 -2.59465 25.34373 0 0 0
38 -7.36515 -2.37762 25.37258 0 0 0
39 -8.27642 -2.61398 25.67385 0 0 0
40 -9.05826 -3.15980 25.94794 0 0 0
41 -9.75299 -2.53257 25.67627 0 0 0
42 -10.73134 -2.34045 25.89712 0 0 0
43 -11.54324 -2.36092 26.49030 0 0 0
44 -11.63610 -1.73058 27.26946 0 0 0
45 -11.54379 -1.32379 28.10036 0 0 0
46 -12.33275 -1.10630 28.55122 0 0 0
47 -13.20327 -1.47337 28.68602 0 0 0
48 -13.33421 -0.68358 29.10555 0 0 0
49 -14.13996 -0.72163 29.73422 0 0 0
50 -14.65728 -1.11979 30.43720 0 0 0
51 -14.94644 -1.08453 31.43654 0 0 0
52 0.77511 0.63580 22.02065 0 0 0
53 1.07372 1.33566 21.35150 0 0 0
54 1.37552 2.23654 20.90702 0 0 0
55 1.25422 2.81634 20.15913 0 0 0
56 1.23959 3.77420 19.94733 0 0 0
57 1.18174 4.76721 20.07287 0 0 0
58 1.32498 5.71639 20.06231 0 0 0
59 0.77294 6.37901 19.71983 0 0 0
60 0.30635 7.14411 20.01581 0 0 0
61 0.24967 8.02159 20.34454 0 0 0
62 0.28036 9.04457 20.28439 0 0 0
63 0.94815 9.55252 20.85620 0 0 0
64 0.69901 10.57056 20.70903 0 0 0
65 1.29125 11.22983 20.37589 0 0 0
66 1.90321 11.87746 19.91095 0 0 0
67 2.31532 12.75773 19.73094 0 0 0
68 2.62286 13.37414 19.08966 0 0 0
69 3.63306 13.50751 18.75236 0 0 0
70 3.96064 14.29878 18.26762 0 0 0
71 4.54449 14.91371 17.62960 0 0 0
72 5.11355 15.72147 17.62165 0 0 0
73 4.76085 16.51088 17.12201 0 0 0
74 3.73069 16.79438 17.16823 0 0 0
75 2.87116 17.01488 17.53050 0 0 0
76 1.91504 17.16753 17.45827 0 0 0
77 0.25918 -1.23717 22.01988 0 0 0
78 -0.35387 -1.97644 21.84491 0 0 0
79 0.49150 -2.50413 21.79756 0 0 0
80 0.78636 -3.01823 22.60297 0 0 0
81 1.58099 -3.06154 22.98621 0 0 0
82 1.67802 -2.57256 23.79138 0 0 0
83 2.50825 -3.08070 23.89204 0 0 0
84 2.59497 -3.70113 24.59171 0 0 0
85 2.89840 -3.53887 25.55826 0 0 0
86 2.61260 -3.52856 26.51936 0 0 0
87 3.08268 -3.26506 27.33378 0 0 0
88 3.57426 -2.66819 28.02768 0 0 0
89 4.21918 -2.55849 28.80055 0 0 0
90 4.13220 -1.61592 28.67474 0 0 0
91 4.92755 -1.26800 28.32247 0 0 0
92 5.25007 -1.86181 29.01819 0 0 0
93 6.14200 -2.16298 29.39040 0 0 0
94 6.38550 -1.31647 29.71165 0 0 0
95 7.27367 -0.99595 29.55980 0 0 0
96 7.84573 -1.56229 30.17650 0 0 0
97 8.17902 -2.34784 30.62088 0 0 0
98 8.50083 -2.60720 29.75606 0 0 0
99 9.33759 -2.17389 29.55230 0 0 0
100 10.23573 -2.63754 29.44172 0 0 0
101 9.42045 -3.22042 29.57393 0 0 0
ITEM: TIMESTEP
4000
ITEM: NUMBER OF ATOMS
101
ITEM: BOX BOUNDS pp pp pp
-1.0000000000000000e+03 1.0000000000000000e+03
-1.0000000000000000e+03 1.0000000000000000e+03
-1.0000000000000000e+03 1.0000000000000000e+03
ITEM: ATOMS id x y z ix iy iz
1 -2.35773 0.96705 9.01387 0 0 0
2 -2.98167 0.29809 8.62881 0 0 0
3 -2.76803 -0.67888 8.38931 0 0 0
4 -1.98272 -0.66168 8.92430 0 0 0
5 -2.01367 -0.57869 9.95780 0 0 0
6 -1.63596 -0.76738 10.88869 0 0 0
7 -0.83406 -0.20362 11.03970 0 0 0
8 -0.49293 -0.20738 11.90490 0 0 0
9 -0.08020 0.57633 12.39542 0 0 0
10 -0.87374 0.24427 12.89629 0 0 0
11 -0.84870 -0.55288 13.41527 0 0 0
12 -0.75193 -0.65603 14.50673 0 0 0
13 -1.42971 -1.28534 14.68988 0 0 0
14 -1.46542 -1.87517 15.45030 0 0 0
15 -0.71924 -1.98201 16.07682 0 0 0
16 -0.24155 -1.26462 15.53989 0 0 0
17 -0.16240 -0.48857 16.14910 0 0 0
18 -0.76655 -0.12168 16.81444 0 0 0
19 -0.58216 0.79363 17.22116 0 0 0
20 -1.02657 0.60468 18.14154 0 0 0
21 -1.55424 0.19902 18.85745 0 0 0
22 -1.08145 -0.60317 19.23437 0 0 0
23 -1.03021 -1.38635 19.77999 0 0 0
24 -1.44188 -1.16928 20.66645 0 0 0
25 -0.98458 -0.78934 21.49095 0 0 0
26 -0.12414 -0.30243 21.57404 0 0 0
27 -0.85184 0.02962 22.18595 0 0 0
28 -1.69278 0.21780 22.69004 0 0 0
29 -2.53219 0.17406 23.24838 0 0 0
30 -3.18196 0.67680 23.82451 0 0 0
31 -4.13573 0.80226 24.19611 0 0 0
32 -4.79056 1.09609 24.74785 0 0 0
33 -4.64886 1.40380 25.70304 0 0 0
34 -5.50662 1.69704 25.30975 0 0 0
35 -5.95702 2.43145 25.80867 0 0 0
36 -6.75511 1.89498 25.65110 0 0 0
37 -7.70458 1.54542 25.94437 0 0 0
38 -8.13314 2.37842 25.58121 0 0 0
39 -8.92425 1.80246 25.84925 0 0 0
40 -9.13757 1.09914 25.20105 0 0 0
41 -9.69395 0.47898 25.60037 0 0 0
42 -10.47337 0.84051 25.97706 0 0 0
43 -11.23952 0.15496 25.74618 0 0 0
44 -11.59491 -0.69494 26.11499 0 0 0
45 -11.71240 -1.60219 26.54685 0 0 0
46 -12.49697 -2.09633 26.86551 0 0 0
47 -12.72922 -2.66753 27.74423 0 0 0
48 -13.25555 -3.46246 27.86921 0 0 0
49 -13.84539 -4.27120 27.89893 0 0 0
50 -14.76088 -4.63849 27.83186 0 0 0
51 -15.11369 -3.72283 28.26485 0 0 0
52 -0.04195 0.36817 20.86087 0 0 0
53 0.48017 1.15133 20.84455 0 0 0
54 1.06085 1.48312 21.55088 0 0 0
55 1.77741 2.01357 21.77425 0 0 0
56 2.33028 2.84523 21.63677 0 0 0
57 1.88875 3.37134 20.88223 0 0 0
58 2.13623 3.75095 20.00549 0 0 0
59 2.71962 4.50979 20.19481 0 0 0
60 2.61454 5.54697 20.14930 0 0 0
61 2.44815 6.41214 19.82330 0 0 0
62 2.87220 7.17239 19.44354 0 0 0
63 2.98754 8.11303 19.22253 0 0 0
64 3.05030 8.91110 18.55303 0 0 0
65 2.19188 9.44522 18.52882 0 0 0
66 1.43581 10.14285 18.60532 0 0 0
67 1.15837 11.07245 18.76786 0 0 0
68 1.93537 11.58020 18.87241 0 0 0
69 1.94860 12.57267 18.67874 0 0 0
70 2.14285 13.52288 18.85780 0 0 0
71 2.05081 14.22008 18.13603 0 0 0
72 1.81365 15.13831 18.16194 0 0 0
73 2.23072 16.01570 18.51592 0 0 0
74 2.11297 16.67042 17.80220 0 0 0
75 2.58185 16.69152 17.00259 0 0 0
76 2.82755 17.35344 16.35078 0 0 0
77 0.64489 0.17907 21.72595 0 0 0
78 0.74072 0.27049 22.68434 0 0 0
79 1.46684 1.01212 22.66304 0 0 0
80 1.72657 0.99600 23.59365 0 0 0
81 2.23593 0.56897 24.49842 0 0 0
82 2.73661 -0.09392 24.89683 0 0 0
83 3.45129 -0.26807 25.50774 0 0 0
84 3.91534 -1.08934 25.33654 0 0 0
85 3.63284 -1.65353 26.08172 0 0 0
86 3.89435 -1.38486 27.06057 0 0 0
87 4.85267 -1.11205 27.12027 0 0 0
88 5.40234 -1.41625 27.89252 0 0 0
89 5.94702 -1.67250 27.19524 0 0 0
90 6.61721 -1.27354 27.79382 0 0 0
91 7.11006 -0.82547 28.53224 0 0 0
92 7.85467 -0.89926 29.09877 0 0 0
93 7.98863 -0.58359 30.03151 0 0 0
94 7.58977 -1.38534 30.50076 0 0 0
95 7.92159 -1.46065 31.38897 0 0 0
96 8.08829 -2.42544 31.10460 0 0 0
97 9.00664 -2.24833 31.10090 0 0 0
98 9.95358 -2.26848 31.34714 0 0 0
99 10.25714 -1.93093 30.50211 0 0 0
100 10.21252 -0.94094 30.47093 0 0 0
101 11.15951 -1.21616 30.28011 0 0 0
ITEM: TIMESTEP
5000
ITEM: NUMBER OF ATOMS
101
ITEM: BOX BOUNDS pp pp pp
-1.0000000000000000e+03 1.0000000000000000e+03
-1.0000000000000000e+03 1.0000000000000000e+03
-1.0000000000000000e+03 1.0000000000000000e+03
ITEM: ATOMS id x y z ix iy iz
1 0.43323 1.88221 10.96719 0 0 0
2 -0.16262 1.27198 11.40114 0 0 0
3 -0.23058 0.37032 11.13227 0 0 0
4 0.40237 -0.20050 11.70695 0 0 0
5 0.44612 -1.17555 12.18305 0 0 0
6 0.56638 -1.76679 13.06432 0 0 0
7 1.49725 -1.49404 13.23355 0 0 0
8 1.53084 -0.75314 13.79764 0 0 0
9 2.14690 -1.34335 14.24706 0 0 0
10 2.08819 -0.50322 14.88574 0 0 0
11 1.24711 -0.04769 14.94420 0 0 0
12 0.86721 -0.41552 15.76586 0 0 0
13 1.11707 -1.05889 16.41234 0 0 0
14 2.12847 -0.89177 16.63009 0 0 0
15 1.62408 -0.40662 17.33699 0 0 0
16 1.78546 0.50784 17.19299 0 0 0
17 1.03744 0.44243 16.59576 0 0 0
18 0.06994 0.61501 16.49901 0 0 0
19 -0.41838 0.88012 17.33559 0 0 0
20 0.07274 1.23345 18.10425 0 0 0
21 -0.26900 0.30035 18.38271 0 0 0
22 -0.83644 0.52748 19.19279 0 0 0
23 -0.70897 0.77676 20.16148 0 0 0
24 -1.31739 0.38791 20.83863 0 0 0
25 -1.01522 0.26982 21.78979 0 0 0
26 -0.71625 0.61603 22.63854 0 0 0
27 -1.50249 1.16712 23.19868 0 0 0
28 -2.27035 1.74405 23.07387 0 0 0
29 -2.69991 0.77779 23.17385 0 0 0
30 -3.46742 0.59492 23.80704 0 0 0
31 -3.80163 0.63396 22.89893 0 0 0
32 -3.88280 1.61333 23.01808 0 0 0
33 -4.79597 1.32848 22.70621 0 0 0
34 -5.13970 0.70629 23.36076 0 0 0
35 -5.83752 1.41272 23.19555 0 0 0
36 -6.24670 1.50154 24.09840 0 0 0
37 -5.61909 1.09063 24.64896 0 0 0
38 -5.89409 0.30263 25.20805 0 0 0
39 -6.65253 -0.10320 25.67088 0 0 0
40 -6.91377 -1.00283 25.37830 0 0 0
41 -7.97429 -0.92829 25.23786 0 0 0
42 -8.42414 -0.33166 25.88950 0 0 0
43 -8.96845 0.41540 25.52442 0 0 0
44 -9.81408 0.83932 25.22342 0 0 0
45 -10.41451 0.06913 25.03938 0 0 0
46 -11.25267 -0.02764 25.51986 0 0 0
47 -12.14309 0.35313 25.80972 0 0 0
48 -13.00476 0.33938 26.23598 0 0 0
49 -13.95667 0.30741 25.99610 0 0 0
50 -14.68485 -0.36678 26.21096 0 0 0
51 -14.77978 -1.33942 26.09844 0 0 0
52 -0.52094 1.49189 22.12282 0 0 0
53 0.03098 2.07726 21.68029 0 0 0
54 0.79254 2.54924 21.73281 0 0 0
55 0.58705 3.25466 21.03728 0 0 0
56 1.42331 3.71326 21.09051 0 0 0
57 1.99110 4.28439 20.53035 0 0 0
58 2.61871 5.03755 20.15557 0 0 0
59 3.26072 5.71015 19.94556 0 0 0
60 4.07757 6.10840 20.34504 0 0 0
61 4.42020 6.86852 19.92552 0 0 0
62 3.98714 7.72339 19.67758 0 0 0
63 3.56872 8.18367 18.85804 0 0 0
64 3.02424 8.81605 18.31377 0 0 0
65 3.50898 9.42673 17.65781 0 0 0
66 3.26088 10.12155 17.05065 0 0 0
67 2.86485 10.96769 16.52153 0 0 0
68 2.51880 11.90057 16.39557 0 0 0
69 2.84133 13.01830 16.17665 0 0 0
70 3.14491 13.90935 16.35547 0 0 0
71 2.85698 14.74790 16.69092 0 0 0
72 2.44509 15.59927 16.86097 0 0 0
73 2.35273 16.42068 16.29828 0 0 0
74 2.48152 17.33876 16.35112 0 0 0
75 1.84756 17.98939 16.64134 0 0 0
76 1.71877 18.73029 17.34973 0 0 0
77 -0.14474 -0.14294 22.80488 0 0 0
78 0.17788 0.36824 23.50249 0 0 0
79 0.46210 -0.40289 24.20017 0 0 0
80 1.12639 -0.16292 24.90387 0 0 0
81 1.52046 -0.31102 24.00981 0 0 0
82 1.81027 -1.24084 24.28241 0 0 0
83 2.38941 -1.21898 25.12638 0 0 0
84 2.88373 -1.45807 26.06149 0 0 0
85 3.53953 -0.66671 26.04306 0 0 0
86 3.59071 -0.49796 26.98680 0 0 0
87 3.69709 -0.01884 27.75812 0 0 0
88 4.51108 -0.16930 28.35302 0 0 0
89 5.49342 -0.22032 28.59570 0 0 0
90 4.97247 -0.97184 28.95851 0 0 0
91 5.94755 -0.89947 29.19641 0 0 0
92 6.76705 -1.25313 28.88158 0 0 0
93 6.67070 -1.12849 29.83826 0 0 0
94 6.97660 -1.90367 30.48768 0 0 0
95 8.00090 -1.96340 30.51108 0 0 0
96 8.80770 -2.18219 31.02539 0 0 0
97 8.42564 -1.53014 31.70258 0 0 0
98 9.19215 -1.17910 31.21847 0 0 0
99 9.47571 -0.34705 31.73267 0 0 0
100 9.47755 0.56973 31.96773 0 0 0
101 9.95813 0.09067 32.75123 0 0 0
ITEM: TIMESTEP
6000
ITEM: NUMBER OF ATOMS
101
ITEM: BOX BOUNDS pp pp pp
-1.0000000000000000e+03 1.0000000000000000e+03
-1.0000000000000000e+03 1.0000000000000000e+03
-1.0000000000000000e+03 1.0000000000000000e+03
ITEM: ATOMS id x y z ix iy iz
1 -0.48998 -0.10329 12.15136 0 0 0
2 -0.09271 -0.96078 12.62354 0 0 0
3 0.41503 -1.78329 12.52118 0 0 0
4 0.71974 -2.62334 12.86087 0 0 0
5 1.08658 -3.53105 13.07498 0 0 0
6 1.99031 -3.91853 12.91949 0 0 0
7 2.57234 -3.33950 12.45257 0 0 0
8 2.53894 -2.75706 13.22765 0 0 0
9 2.86348 -2.48377 14.13733 0 0 0
10 2.79002 -1.75359 14.85088 0 0 0
11 2.91091 -0.95406 15.43794 0 0 0
12 3.90306 -0.89651 15.52879 0 0 0
13 4.18212 -1.77316 15.33963 0 0 0
14 4.27684 -2.03809 16.29163 0 0 0
15 3.73917 -1.73327 17.01501 0 0 0
16 4.11507 -0.95170 17.47092 0 0 0
17 3.48037 -0.17348 17.61742 0 0 0
18 3.07822 0.27340 18.44976 0 0 0
19 2.96729 1.20430 18.82217 0 0 0
20 2.69122 1.92843 19.36390 0 0 0
21 1.92015 2.30471 19.85742 0 0 0
22 1.44204 1.77320 20.50520 0 0 0
23 1.15708 1.29272 21.31482 0 0 0
24 0.67381 0.46799 21.49592 0 0 0
25 -0.24025 0.22887 21.86820 0 0 0
26 -0.55954 0.99018 22.43936 0 0 0
27 -1.25942 1.18225 23.08911 0 0 0
28 -2.02873 1.23699 22.56123 0 0 0
29 -2.46078 2.09858 22.29505 0 0 0
30 -2.84858 2.96079 22.66060 0 0 0
31 -3.65979 3.37932 22.85995 0 0 0
32 -4.33834 3.14478 23.53597 0 0 0
33 -4.85260 2.58787 24.19559 0 0 0
34 -4.69794 2.63946 25.14298 0 0 0
35 -4.84190 1.73369 25.74486 0 0 0
36 -5.21364 0.90931 25.42869 0 0 0
37 -5.70295 0.97830 24.55185 0 0 0
38 -6.34823 0.33857 24.79092 0 0 0
39 -7.00391 0.65114 25.46458 0 0 0
40 -7.44201 1.48454 25.83719 0 0 0
41 -8.22857 1.30612 26.44219 0 0 0
42 -8.91822 1.14640 27.09523 0 0 0
43 -9.88458 0.71181 27.00794 0 0 0
44 -10.74686 0.27887 26.94212 0 0 0
45 -11.02309 -0.36342 26.30314 0 0 0
46 -11.90901 -0.67451 26.14306 0 0 0
47 -12.42741 -0.97951 25.40732 0 0 0
48 -12.98257 -0.10822 25.18036 0 0 0
49 -13.24278 0.68911 25.66147 0 0 0
50 -13.24015 1.68813 25.71986 0 0 0
51 -12.39455 1.95698 25.18902 0 0 0
52 -0.72920 1.81051 21.94937 0 0 0
53 -0.30708 2.43615 21.19053 0 0 0
54 0.11522 3.10311 20.66753 0 0 0
55 0.77664 3.29663 19.97160 0 0 0
56 1.25152 3.78511 19.21702 0 0 0
57 1.32872 4.45596 18.49162 0 0 0
58 2.20023 4.71347 18.14060 0 0 0
59 3.11049 5.03310 18.07807 0 0 0
60 2.87464 5.81998 18.54535 0 0 0
61 3.13318 6.42339 19.20940 0 0 0
62 3.05757 7.28879 18.87657 0 0 0
63 3.48525 8.19241 18.98665 0 0 0
64 3.53814 9.18359 19.02256 0 0 0
65 3.42517 10.06093 18.62716 0 0 0
66 3.37860 10.88298 17.97047 0 0 0
67 3.95450 11.70208 18.10096 0 0 0
68 4.47855 12.52866 18.05650 0 0 0
69 5.22921 12.23296 17.54534 0 0 0
70 4.38188 12.00290 17.08829 0 0 0
71 3.68185 12.69246 17.08333 0 0 0
72 3.36280 13.57290 17.11055 0 0 0
73 3.36019 14.59486 16.96913 0 0 0
74 3.63824 15.50007 16.64507 0 0 0
75 3.30371 16.44088 16.62791 0 0 0
76 3.25781 17.43438 16.53466 0 0 0
77 0.33627 1.06239 22.88071 0 0 0
78 0.85624 0.35350 23.36608 0 0 0
79 1.44634 -0.46210 23.42852 0 0 0
80 0.86837 -0.45052 24.21435 0 0 0
81 1.74659 -0.17772 24.48615 0 0 0
82 1.47888 -0.41701 25.40823 0 0 0
83 1.53891 -0.02131 26.35997 0 0 0
84 1.50627 -0.94898 26.59712 0 0 0
85 2.44149 -1.26678 26.77279 0 0 0
86 2.96797 -0.64462 27.38502 0 0 0
87 3.79828 -0.71660 27.80216 0 0 0
88 4.58971 -0.42470 28.31408 0 0 0
89 5.23463 -1.06461 28.69931 0 0 0
90 6.09691 -1.51039 28.77363 0 0 0
91 6.87051 -2.10161 28.97523 0 0 0
92 7.18282 -1.22989 29.31810 0 0 0
93 8.15882 -1.09774 29.08086 0 0 0
94 8.55378 -1.00261 29.93651 0 0 0
95 9.35107 -1.37510 30.34856 0 0 0
96 9.45101 -1.07439 31.25645 0 0 0
97 10.13194 -0.38142 31.19599 0 0 0
98 10.36653 0.54714 31.29820 0 0 0
99 10.66691 -0.01283 32.04260 0 0 0
100 10.30707 0.51429 32.74932 0 0 0
101 9.86448 0.01168 33.45887 0 0 0
ITEM: TIMESTEP
7000
ITEM: NUMBER OF ATOMS
101
ITEM: BOX BOUNDS pp pp pp
-1.0000000000000000e+03 1.0000000000000000e+03
-1.0000000000000000e+03 1.0000000000000000e+03
-1.0000000000000000e+03 1.0000000000000000e+03
ITEM: ATOMS id x y z ix iy iz
1 4.31764 -2.31243 12.17903 0 0 0
2 3.63125 -2.42691 11.51924 0 0 0
3 3.22031 -1.56478 11.48617 0 0 0
4 2.71716 -0.74445 11.53219 0 0 0
5 1.89026 -1.03945 11.89113 0 0 0
6 2.25854 -0.48688 12.66941 0 0 0
7 2.50337 -0.24965 13.57810 0 0 0
8 3.09063 -0.93527 13.83817 0 0 0
9 3.18760 -1.80448 14.18325 0 0 0
10 3.24426 -2.83769 14.43241 0 0 0
11 3.59391 -3.63909 14.88870 0 0 0
12 4.11931 -3.32375 15.66570 0 0 0
13 4.93221 -3.32648 16.20884 0 0 0
14 5.45898 -3.29470 17.06728 0 0 0
15 5.92650 -2.45943 17.49827 0 0 0
16 5.37949 -2.10271 18.29766 0 0 0
17 5.18003 -1.52071 19.06043 0 0 0
18 4.68346 -0.66704 19.19340 0 0 0
19 4.72411 -0.46244 20.15337 0 0 0
20 4.13350 -0.34975 20.97470 0 0 0
21 3.73134 0.40052 21.43528 0 0 0
22 3.35966 0.99571 22.07843 0 0 0
23 2.63385 1.67484 22.20821 0 0 0
24 2.03671 2.39394 22.40892 0 0 0
25 1.47193 2.17791 23.19346 0 0 0
26 0.75662 2.58336 23.67198 0 0 0
27 -0.19681 2.31683 23.69121 0 0 0
28 -0.75812 3.12087 23.95172 0 0 0
29 -1.57137 3.13828 23.38627 0 0 0
30 -1.81600 2.84486 22.40388 0 0 0
31 -2.67526 2.59327 22.87245 0 0 0
32 -3.37514 3.16586 22.56961 0 0 0
33 -4.17097 3.37374 23.06492 0 0 0
34 -5.02278 3.69162 23.57025 0 0 0
35 -4.92157 4.11206 22.75665 0 0 0
36 -5.81022 3.85559 22.91264 0 0 0
37 -6.43119 3.07370 22.91587 0 0 0
38 -5.69684 2.49831 23.23370 0 0 0
39 -6.25081 2.15707 23.96955 0 0 0
40 -7.12296 1.89319 24.44372 0 0 0
41 -8.00261 1.56032 24.96376 0 0 0
42 -8.56162 0.90494 25.42803 0 0 0
43 -8.62473 0.16884 26.10552 0 0 0
44 -8.79856 -0.80159 25.81643 0 0 0
45 -9.53026 -0.97788 26.46125 0 0 0
46 -10.39366 -1.38430 26.63981 0 0 0
47 -10.92264 -1.39754 27.47930 0 0 0
48 -11.75859 -1.83728 27.47694 0 0 0
49 -12.33587 -1.08096 27.31974 0 0 0
50 -13.05182 -0.61799 26.85964 0 0 0
51 -13.28032 0.37175 26.74604 0 0 0
52 0.62083 3.15049 22.92689 0 0 0
53 -0.01128 2.93636 22.11782 0 0 0
54 0.14133 2.93151 21.17212 0 0 0
55 0.93905 2.57745 20.75529 0 0 0
56 1.80736 2.91079 20.91693 0 0 0
57 1.66337 3.83969 20.54996 0 0 0
58 1.17522 4.50297 20.03281 0 0 0
59 0.93642 5.29299 19.49331 0 0 0
60 0.56488 5.75254 18.76499 0 0 0
61 1.09961 6.19822 18.10047 0 0 0
62 1.39071 7.12278 18.04869 0 0 0
63 1.70805 8.06751 18.11865 0 0 0
64 2.38469 8.89673 18.22505 0 0 0
65 2.98238 9.02174 18.96976 0 0 0
66 3.68917 9.60310 19.30093 0 0 0
67 3.87133 10.44650 18.80489 0 0 0
68 3.97496 11.08433 18.14168 0 0 0
69 3.07179 11.46016 18.52611 0 0 0
70 3.13687 12.43749 18.88450 0 0 0
71 3.04083 13.00068 19.65167 0 0 0
72 3.43698 13.76201 20.06713 0 0 0
73 3.19046 14.47530 19.46400 0 0 0
74 3.30297 14.71146 18.54050 0 0 0
75 3.65721 14.96225 17.73639 0 0 0
76 3.57233 15.51478 16.96912 0 0 0
77 0.69028 1.90400 24.45945 0 0 0
78 0.97180 2.53626 25.14410 0 0 0
79 0.30721 1.96781 25.59661 0 0 0
80 -0.15428 1.50545 26.35773 0 0 0
81 0.91529 1.37025 26.26177 0 0 0
82 1.67402 1.67283 25.67490 0 0 0
83 2.23122 1.81403 26.43830 0 0 0
84 2.93039 1.22753 26.69790 0 0 0
85 3.84761 1.17711 27.17500 0 0 0
86 3.90814 1.29690 28.17681 0 0 0
87 4.78972 0.92120 28.54711 0 0 0
88 5.05082 0.40275 29.28895 0 0 0
89 5.40818 -0.39880 29.74621 0 0 0
90 5.17069 -1.16738 30.25183 0 0 0
91 5.70944 -1.86614 29.77143 0 0 0
92 6.40518 -1.23206 29.79631 0 0 0
93 6.70576 -0.54544 30.39136 0 0 0