bb225nuc5bl37bn4d30tot600

597 atoms
596 bonds
610 angles

1 atom types
1 bond types
1 angle types

-1000 1000 xlo xhi
-1000 1000 ylo yhi
-1000 1000 zlo zhi

Masses

1 1

Atoms

1	1	1	0.0	0.0	0.0	0	0	0
2	1	1	0.0	0.0	1.0	0	0	0
3	1	1	0.0	-0.49999999999999994	1.8660254037844388	0	0	0
4	1	1	0.0	0.0	2.7320508075688776	0	0	0
5	1	1	0.0	-0.49999999999999994	3.5980762113533165	0	0	0
6	1	1	0.0	0.0	4.464101615137755	0	0	0
7	1	1	0.0	-0.49999999999999994	5.330127018922194	0	0	0
8	1	1	0.0	0.0	6.196152422706632	0	0	0
9	1	1	0.0	-0.49999999999999994	7.06217782649107	0	0	0
10	1	1	0.0	0.0	7.928203230275509	0	0	0
11	1	1	0.0	-0.49999999999999994	8.794228634059948	0	0	0
12	1	1	0.0	0.0	9.660254037844387	0	0	0
13	1	1	0.0	-0.49999999999999994	10.526279441628827	0	0	0
14	1	1	0.0	0.0	11.392304845413266	0	0	0
15	1	1	0.0	-0.49999999999999994	12.258330249197705	0	0	0
16	1	1	0.0	0.0	13.124355652982144	0	0	0
17	1	1	0.0	-0.49999999999999994	13.990381056766584	0	0	0
18	1	1	0.0	0.0	14.856406460551023	0	0	0
19	1	1	0.0	-0.49999999999999994	15.722431864335462	0	0	0
20	1	1	0.0	0.0	16.5884572681199	0	0	0
21	1	1	0.0	-0.49999999999999994	17.454482671904337	0	0	0
22	1	1	0.0	0.0	18.320508075688775	0	0	0
23	1	1	0.0	-0.49999999999999994	19.186533479473212	0	0	0
24	1	1	0.0	0.0	20.05255888325765	0	0	0
25	1	1	0.0	-0.49999999999999994	20.918584287042087	0	0	0
26	1	1	0.0	0.0	21.784609690826525	0	0	0
27	1	1	0.0	-0.49999999999999994	22.650635094610962	0	0	0
28	1	1	0.0	0.0	23.5166604983954	0	0	0
29	1	1	0.0	-0.49999999999999994	24.382685902179837	0	0	0
30	1	1	0.0	0.0	25.248711305964274	0	0	0
31	1	1	0.0	-0.49999999999999994	26.114736709748712	0	0	0
32	1	1	0.0	0.0	26.98076211353315	0	0	0
33	1	1	0.0	-0.49999999999999994	27.846787517317587	0	0	0
34	1	1	0.0	0.0	28.712812921102024	0	0	0
35	1	1	0.0	-0.49999999999999994	29.578838324886462	0	0	0
36	1	1	0.0	0.0	30.4448637286709	0	0	0
37	1	1	0.0	-0.49999999999999994	31.310889132455337	0	0	0
38	1	1	0.0	0.0	32.17691453623978	0	0	0
39	1	1	-0.8327612330293637	0.549410007493564	32.24515948058982	0	0	0
40	1	1	-1.6655224660587256	0.9910905589013682	32.578966339823594	0	0	0
41	1	1	-2.4982836990880877	1.5010160546592126	32.363363191563806	0	0	0
42	1	1	-3.33104493211745	1.9426966060670168	32.69717005079758	0	0	0
43	1	1	-4.163806165146812	2.4526221018248613	32.48156690253779	0	0	0
44	1	1	-4.996567398176174	2.8943026532326654	32.81537376177157	0	0	0
45	1	1	-5.829328631205535	3.4042281489905095	32.59977061351178	0	0	0
46	1	1	-6.662089864234897	3.8459087003983137	32.933577472745554	0	0	0
47	1	1	-7.494851097264259	4.355834196156158	32.717974324485766	0	0	0
48	1	1	-8.32761233029362	4.797514747563962	33.05178118371954	0	0	0
49	1	1	-9.160373563322983	5.307440243321807	32.83617803545975	0	0	0
50	1	1	-9.993134796352345	5.7491207947296115	33.16998489469353	0	0	0
51	1	1	-10.825896029381708	6.259046290487456	32.95438174643374	0	0	0
52	1	1	-11.65865726241107	6.700726841895261	33.288188605667514	0	0	0
53	1	1	-12.491418495440433	7.210652337653105	33.072585457407726	0	0	0
54	1	1	-13.324179728469796	7.65233288906091	33.4063923166415	0	0	0
55	1	1	-14.156940961499158	8.162258384818754	33.19078916838171	0	0	0
56	1	1	-14.98970219452852	8.603938936226559	33.52459602761549	0	0	0
57	1	1	-15.822463427557883	9.113864431984403	33.3089928793557	0	0	0
58	1	1	-16.655224660587244	9.555544983392208	33.642799738589474	0	0	0
59	1	1	-17.487985893616607	10.065470479150052	33.427196590329686	0	0	0
60	1	1	-18.32074712664597	10.507151030557857	33.76100344956346	0	0	0
61	1	1	-19.15350835967533	11.017076526315702	33.54540030130367	0	0	0
62	1	1	-19.986269592704694	11.458757077723506	33.87920716053745	0	0	0
63	1	1	-20.819030825734057	11.96868257348135	33.66360401227766	0	0	0
64	1	1	-21.65179205876342	12.410363124889155	33.997410871511434	0	0	0
65	1	1	-22.484553291792782	12.920288620647	33.781807723251646	0	0	0
66	1	1	-23.317314524822145	13.361969172054804	34.11561458248542	0	0	0
67	1	1	-24.150075757851507	13.871894667812649	33.90001143422563	0	0	0
68	1	1	-24.98283699088087	14.313575219220454	34.23381829345941	0	0	0
69	1	1	-25.815598223910232	14.823500714978298	34.01821514519962	0	0	0
70	1	1	-26.648359456939595	15.265181266386103	34.352022004433394	0	0	0
71	1	1	-27.481120689968957	15.775106762143947	34.136418856173606	0	0	0
72	1	1	-28.31388192299832	16.21678731355175	34.47022571540738	0	0	0
73	1	1	-29.146643156027682	16.726712809309596	34.25462256714759	0	0	0
74	1	1	-29.979404389057045	17.1683933607174	34.58842942638137	0	0	0
75	1	1	-30.812165622086408	17.678318856475244	34.37282627812158	0	0	0
76	1	1	0.7988871943913621	0.6002210654505663	32.21582370260053	0	0	0
77	1	1	1.5977743887827227	1.1005731728369403	32.549630561834306	0	0	0
78	1	1	2.396661583174083	1.6398344465840695	32.28321635561751	0	0	0
79	1	1	3.1955487775654436	2.1401865539704437	32.61702321485129	0	0	0
80	1	1	3.994435971956804	2.679447827717573	32.35060900863449	0	0	0
81	1	1	4.793323166348165	3.1797999351039468	32.68441586786827	0	0	0
82	1	1	5.592210360739525	3.719061208851076	32.41800166165147	0	0	0
83	1	1	6.3910975551308855	4.21941331623745	32.75180852088525	0	0	0
84	1	1	7.189984749522246	4.7586745899845795	32.485394314668454	0	0	0
85	1	1	7.988871943913606	5.259026697370953	32.81920117390223	0	0	0
86	1	1	8.787759138304967	5.798287971118082	32.552786967685435	0	0	0
87	1	1	9.586646332696327	6.298640078504456	32.88659382691921	0	0	0
88	1	1	10.385533527087688	6.837901352251585	32.620179620702416	0	0	0
89	1	1	11.184420721479048	7.338253459637959	32.95398647993619	0	0	0
90	1	1	11.983307915870409	7.8775147333850875	32.6875722737194	0	0	0
91	1	1	12.78219511026177	8.377866840771462	33.02137913295317	0	0	0
92	1	1	13.58108230465313	8.917128114518592	32.75496492673638	0	0	0
93	1	1	14.37996949904449	9.417480221904967	33.08877178597015	0	0	0
94	1	1	15.17885669343585	9.956741495652096	32.82235757975336	0	0	0
95	1	1	15.977743887827211	10.457093603038471	33.15616443898713	0	0	0
96	1	1	16.77663108221857	10.9963548767856	32.88975023277034	0	0	0
97	1	1	17.575518276609934	11.496706984171976	33.223557092004114	0	0	0
98	1	1	18.374405471001296	12.035968257919105	32.95714288578732	0	0	0
99	1	1	19.17329266539266	12.53632036530548	33.290949745021095	0	0	0
100	1	1	19.97217985978402	13.07558163905261	33.0245355388043	0	0	0
101	1	1	20.771067054175383	13.575933746438984	33.358342398038076	0	0	0
102	1	1	21.569954248566745	14.115195020186114	33.09192819182128	0	0	0
103	1	1	22.368841442958107	14.615547127572489	33.42573505105506	0	0	0
104	1	1	23.16772863734947	15.154808401319618	33.15932084483826	0	0	0
105	1	1	23.96661583174083	15.655160508705993	33.49312770407204	0	0	0
106	1	1	24.765503026132194	16.194421782453123	33.22671349785524	0	0	0
107	1	1	25.564390220523556	16.694773889839496	33.56052035708902	0	0	0
108	1	1	26.36327741491492	17.234035163586626	33.294106150872224	0	0	0
109	1	1	27.16216460930628	17.734387270973	33.627913010106	0	0	0
110	1	1	27.961051803697643	18.27364854472013	33.361498803889205	0	0	0
111	1	1	28.759938998089005	18.7740006521065	33.69530566312298	0	0	0
112	1	1	29.558826192480367	19.31326192585363	33.428891456906186	0	0	0
113	1	1	0.03387403863799563	-0.6489207840934773	32.937016085690814	0	0	0
114	1	1	0.06774807727599119	-1.5909534428876606	33.27082294492458	0	0	0
115	1	1	0.10162211591398676	-1.7728845522308117	34.25355058825183	0	0	0
116	1	1	0.13549615455198233	-2.714917211024995	34.587357447485594	0	0	0
117	1	1	0.1693701931899779	-2.896848320368146	35.57008509081284	0	0	0
118	1	1	0.20324423182797346	-3.8388809791623295	35.90389195004661	0	0	0
119	1	1	0.23711827046596903	-4.0208120885054806	36.88661959337385	0	0	0
120	1	1	0.2709923091039646	-4.9628447472996635	37.22042645260762	0	0	0
121	1	1	0.30486634774196014	-5.144775856642815	38.20315409593486	0	0	0
122	1	1	0.33874038637995574	-6.0868085154369975	38.53696095516863	0	0	0
123	1	1	0.3726144250179513	-6.268739624780149	39.519688598495875	0	0	0
124	1	1	0.4064884636559468	-7.2107722835743315	39.85349545772964	0	0	0
125	1	1	0.44036250229394236	-7.392703392917483	40.83622310105689	0	0	0
126	1	1	0.4742365409319379	-8.334736051711666	41.170029960290655	0	0	0
127	1	1	0.5081105795699334	-8.516667161054817	42.1527576036179	0	0	0
128	1	1	0.541984618207929	-9.458699819849	42.48656446285167	0	0	0
129	1	1	0.5758586568459245	-9.640630929192152	43.46929210617891	0	0	0
130	1	1	0.6097326954839201	-10.582663587986335	43.80309896541268	0	0	0
131	1	1	0.6436067341219156	-10.764594697329487	44.785826608739924	0	0	0
132	1	1	0.6774807727599111	-11.70662735612367	45.11963346797369	0	0	0
133	1	1	0.7113548113979067	-11.888558465466822	46.10236111130094	0	0	0
134	1	1	0.7452288500359022	-12.830591124261005	46.436167970534704	0	0	0
135	1	1	0.7791028886738978	-13.012522233604157	47.41889561386195	0	0	0
136	1	1	0.8129769273118933	-13.95455489239834	47.75270247309572	0	0	0
137	1	1	0.8468509659498888	-14.136486001741492	48.73543011642296	0	0	0
138	1	1	0.8807250045878844	-15.078518660535675	49.06923697565673	0	0	0
139	1	1	0.9145990432258799	-15.260449769878827	50.05196461898397	0	0	0
140	1	1	0.9484730818638755	-16.20248242867301	50.38577147821774	0	0	0
141	1	1	0.982347120501871	-16.38441353801616	51.368499121544986	0	0	0
142	1	1	1.0162211591398667	-17.326446196810345	51.70230598077875	0	0	0
143	1	1	1.0500951977778623	-17.508377306153495	52.685033624106	0	0	0
144	1	1	1.083969236415858	-18.450409964947678	53.018840483339766	0	0	0
145	1	1	1.1178432750538536	-18.632341074290828	54.00156812666701	0	0	0
146	1	1	1.1517173136918493	-19.57437373308501	54.33537498590078	0	0	0
147	1	1	1.185591352329845	-19.75630484242816	55.31810262922802	0	0	0
148	1	1	1.2194653909678406	-20.698337501222344	55.65190948846179	0	0	0
149	1	1	1.2533394296058362	-20.880268610565494	56.634637131789034	0	0	0
150	1	1	1.2872134682438319	-21.822301269359677	56.9684439910228	0	0	0
151	1	1	0.39402182939274977	-22.253715192565117	56.84159477679186	0	0	0
152	1	1	-0.4991698094583331	-22.563906002491862	56.51603317321504	0	0	0
153	1	1	-1.392361448309416	-23.000946026649554	56.62188549284367	0	0	0
154	1	1	-2.285553087160499	-23.3111368365763	56.29632388926685	0	0	0
155	1	1	-3.178744726011582	-23.74817686073399	56.402176208895476	0	0	0
156	1	1	-4.0719363648626645	-24.058367670660736	56.07661460531866	0	0	0
157	1	1	-4.9651280037137475	-24.49540769481843	56.182466924947285	0	0	0
158	1	1	-5.8583196425648305	-24.805598504745173	55.85690532137047	0	0	0
159	1	1	-6.7515112814159135	-25.242638528902866	55.962757640999094	0	0	0
160	1	1	-7.6447029202669965	-25.55282933882961	55.63719603742228	0	0	0
161	1	1	-8.53789455911808	-25.989869362987303	55.7430483570509	0	0	0
162	1	1	-9.431086197969162	-26.300060172914048	55.41748675347409	0	0	0
163	1	1	-10.324277836820244	-26.73710019707174	55.52333907310271	0	0	0
164	1	1	-11.217469475671326	-27.047291006998485	55.197777469525896	0	0	0
165	1	1	-12.110661114522408	-27.484331031156177	55.30362978915452	0	0	0
166	1	1	-13.00385275337349	-27.794521841082922	54.978068185577705	0	0	0
167	1	1	-13.897044392224572	-28.231561865240614	55.08392050520633	0	0	0
168	1	1	-14.790236031075654	-28.54175267516736	54.758358901629514	0	0	0
169	1	1	-15.683427669926736	-28.97879269932505	54.86421122125814	0	0	0
170	1	1	-16.57661930877782	-29.288983509251796	54.53864961768132	0	0	0
171	1	1	-17.4698109476289	-29.72602353340949	54.64450193730995	0	0	0
172	1	1	-18.363002586479983	-30.036214343336233	54.31894033373313	0	0	0
173	1	1	-19.256194225331065	-30.473254367493926	54.424792653361756	0	0	0
174	1	1	-20.149385864182147	-30.78344517742067	54.09923104978494	0	0	0
175	1	1	-21.04257750303323	-31.220485201578363	54.205083369413565	0	0	0
176	1	1	-21.93576914188431	-31.530676011505108	53.87952176583675	0	0	0
177	1	1	-22.828960780735393	-31.9677160356628	53.985374085465374	0	0	0
178	1	1	-23.722152419586475	-32.27790684558955	53.65981248188856	0	0	0
179	1	1	-24.615344058437557	-32.71494686974724	53.76566480151718	0	0	0
180	1	1	-25.50853569728864	-33.02513767967398	53.44010319794037	0	0	0
181	1	1	-26.40172733613972	-33.46217770383167	53.54595551756899	0	0	0
182	1	1	-27.294918974990804	-33.772368513758416	53.220393913992176	0	0	0
183	1	1	-28.188110613841886	-34.209408537916104	53.3262462336208	0	0	0
184	1	1	-29.081302252692968	-34.51959934784285	53.000684630043985	0	0	0
185	1	1	-29.97449389154405	-34.95663937200054	53.10653694967261	0	0	0
186	1	1	-30.867685530395132	-35.26683018192728	52.780975346095794	0	0	0
187	1	1	-31.760877169246214	-35.70387020608497	52.88682766572442	0	0	0
188	1	1	1.5225683179564238	-21.82379247136773	57.94035235657654	0	0	0
189	1	1	1.757923167669016	-22.31103807296575	58.78130409029266	0	0	0
190	1	1	1.9932780173816078	-21.826375309010032	59.62374702601684	0	0	0
191	1	1	2.2286328670941997	-22.31362091060805	60.464698759732954	0	0	0
192	1	1	2.4639877168067916	-21.828958146652333	61.30714169545713	0	0	0
193	1	1	2.6993425665193835	-22.316203748250352	62.14809342917325	0	0	0
194	1	1	2.9346974162319754	-21.831540984294634	62.99053636489743	0	0	0
195	1	1	3.1700522659445673	-22.318786585892653	63.83148809861355	0	0	0
196	1	1	3.4054071156571593	-21.834123821936934	64.67393103433773	0	0	0
197	1	1	3.640761965369751	-22.321369423534954	65.51488276805385	0	0	0
198	1	1	3.876116815082343	-21.836706659579235	66.35732570377803	0	0	0
199	1	1	4.111471664794935	-22.323952261177254	67.19827743749416	0	0	0
200	1	1	4.346826514507527	-21.839289497221536	68.04072037321833	0	0	0
201	1	1	4.582181364220119	-22.326535098819555	68.88167210693446	0	0	0
202	1	1	4.817536213932711	-21.841872334863837	69.72411504265864	0	0	0
203	1	1	5.052891063645303	-22.329117936461856	70.56506677637476	0	0	0
204	1	1	5.288245913357895	-21.844455172506137	71.40750971209894	0	0	0
205	1	1	5.523600763070487	-22.331700774104156	72.24846144581507	0	0	0
206	1	1	5.758955612783079	-21.847038010148438	73.09090438153925	0	0	0
207	1	1	5.994310462495671	-22.334283611746457	73.93185611525537	0	0	0
208	1	1	6.229665312208263	-21.84962084779074	74.77429905097955	0	0	0
209	1	1	6.4650201619208545	-22.336866449388758	75.61525078469568	0	0	0
210	1	1	6.700375011633446	-21.85220368543304	76.45769372041985	0	0	0
211	1	1	6.935729861346038	-22.33944928703106	77.29864545413598	0	0	0
212	1	1	7.17108471105863	-21.85478652307534	78.14108838986016	0	0	0
213	1	1	7.406439560771222	-22.34203212467336	78.98204012357628	0	0	0
214	1	1	7.641794410483814	-21.85736936071764	79.82448305930046	0	0	0
215	1	1	7.877149260196406	-22.34461496231566	80.66543479301659	0	0	0
216	1	1	8.112504109908999	-21.85995219835994	81.50787772874077	0	0	0
217	1	1	8.347858959621592	-22.34719779995796	82.34882946245689	0	0	0
218	1	1	8.583213809334184	-21.862535036002242	83.19127239818107	0	0	0
219	1	1	8.818568659046777	-22.34978063760026	84.0322241318972	0	0	0
220	1	1	9.05392350875937	-21.865117873644543	84.87466706762137	0	0	0
221	1	1	9.289278358471963	-22.352363475242562	85.7156188013375	0	0	0
222	1	1	9.524633208184555	-21.867700711286844	86.55806173706168	0	0	0
223	1	1	9.759988057897148	-22.354946312884863	87.3990134707778	0	0	0
224	1	1	9.995342907609741	-21.870283548929145	88.24145640650198	0	0	0
225	1	1	1.978972416724261	-22.33276703352935	56.45766589751455	0	0	0
226	1	1	2.6707313652046905	-22.5194543063084	55.76008621075499	0	0	0
227	1	1	3.3624903136851203	-23.2169196725957	55.572972288165104	0	0	0
228	1	1	4.05424926216555	-23.40360694537475	54.875392601405544	0	0	0
229	1	1	4.7460082106459796	-24.10107231166205	54.68827867881566	0	0	0
230	1	1	5.437767159126409	-24.2877595844411	53.990698992056096	0	0	0
231	1	1	6.129526107606838	-24.9852249507284	53.80358506946621	0	0	0
232	1	1	6.821285056087268	-25.17191222350745	53.10600538270665	0	0	0
233	1	1	7.513044004567697	-25.86937758979475	52.91889146011676	0	0	0
234	1	1	8.204802953048127	-26.056064862573802	52.2213117733572	0	0	0
235	1	1	8.896561901528557	-26.753530228861102	52.03419785076731	0	0	0
236	1	1	9.588320850008987	-26.940217501640152	51.33661816400775	0	0	0
237	1	1	10.280079798489417	-27.637682867927452	51.149504241417866	0	0	0
238	1	1	10.971838746969848	-27.824370140706502	50.451924554658305	0	0	0
239	1	1	11.663597695450278	-28.521835506993803	50.26481063206842	0	0	0
240	1	1	12.355356643930708	-28.708522779772853	49.56723094530886	0	0	0
241	1	1	13.047115592411139	-29.405988146060153	49.38011702271897	0	0	0
242	1	1	13.738874540891569	-29.592675418839203	48.68253733595941	0	0	0
243	1	1	14.430633489372	-30.290140785126503	48.49542341336952	0	0	0
244	1	1	15.12239243785243	-30.476828057905553	47.79784372660996	0	0	0
245	1	1	15.81415138633286	-31.174293424192854	47.610729804020075	0	0	0
246	1	1	16.50591033481329	-31.360980696971904	46.913150117260514	0	0	0
247	1	1	17.19766928329372	-32.058446063259204	46.72603619467063	0	0	0
248	1	1	17.88942823177415	-32.24513333603826	46.028456507911066	0	0	0
249	1	1	18.58118718025458	-32.942598702325554	45.84134258532118	0	0	0
250	1	1	19.27294612873501	-33.12928597510461	45.14376289856162	0	0	0
251	1	1	19.96470507721544	-33.826751341391905	44.95664897597173	0	0	0
252	1	1	20.656464025695872	-34.01343861417096	44.25906928921217	0	0	0
253	1	1	21.348222974176302	-34.710903980458255	44.071955366622284	0	0	0
254	1	1	22.039981922656732	-34.89759125323731	43.37437567986272	0	0	0
255	1	1	22.731740871137163	-35.595056619524605	43.187261757272836	0	0	0
256	1	1	23.423499819617593	-35.78174389230366	42.489682070513275	0	0	0
257	1	1	24.115258768098023	-36.479209258590956	42.30256814792339	0	0	0
258	1	1	24.807017716578454	-36.66589653137001	41.60498846116383	0	0	0
259	1	1	25.498776665058884	-37.363361897657306	41.41787453857394	0	0	0
260	1	1	26.190535613539314	-37.55004917043636	40.72029485181438	0	0	0
261	1	1	26.882294562019744	-38.247514536723656	40.53318092922449	0	0	0
262	1	1	27.574053510500175	-38.43420180950271	39.83560124246493	0	0	0
263	1	1	28.437978534438265	-38.00489402837872	40.09890407587158	0	0	0
264	1	1	29.301903558376356	-37.76475400058634	40.54158490905215	0	0	0
265	1	1	30.165828582314447	-37.26131113938732	40.554957961108734	0	0	0
266	1	1	31.029753606252537	-37.02117111159494	40.9976387942893	0	0	0
267	1	1	31.893678630190628	-36.51772825039591	41.01101184634589	0	0	0
268	1	1	32.75760365412872	-36.27758822260353	41.453692679526455	0	0	0
269	1	1	33.62152867806682	-35.77414536140451	41.46706573158304	0	0	0
270	1	1	34.48545370200491	-35.53400533361213	41.90974656476361	0	0	0
271	1	1	35.349378725943005	-35.0305624724131	41.923119616820195	0	0	0
272	1	1	36.2133037498811	-34.790422444620724	42.36580045000076	0	0	0
273	1	1	37.07722877381919	-34.2869795834217	42.37917350205735	0	0	0
274	1	1	37.94115379775729	-34.04683955562932	42.821854335237916	0	0	0
275	1	1	38.80507882169538	-33.54339669443029	42.8352273872945	0	0	0
276	1	1	39.669003845633476	-33.303256666637914	43.27790822047507	0	0	0
277	1	1	40.53292886957157	-32.79981380543889	43.291281272531656	0	0	0
278	1	1	41.396853893509665	-32.55967377764651	43.73396210571222	0	0	0
279	1	1	42.26077891744776	-32.05623091644748	43.74733515776881	0	0	0
280	1	1	43.12470394138585	-31.816090888655104	44.19001599094938	0	0	0
281	1	1	43.98862896532395	-31.31264802745608	44.20338904300596	0	0	0
282	1	1	44.85255398926204	-31.072507999663703	44.64606987618653	0	0	0
283	1	1	45.716479013200136	-30.56906513846468	44.65944292824312	0	0	0
284	1	1	46.58040403713823	-30.3289251106723	45.102123761423684	0	0	0
285	1	1	47.444329061076324	-29.82548224947328	45.11549681348027	0	0	0
286	1	1	48.30825408501442	-29.5853422216809	45.55817764666084	0	0	0
287	1	1	49.17217910895251	-29.081899360481877	45.571550698717424	0	0	0
288	1	1	50.03610413289061	-28.8417593326895	46.01423153189799	0	0	0
289	1	1	50.9000291568287	-28.338316471490476	46.02760458395458	0	0	0
290	1	1	51.763954180766795	-28.098176443698097	46.470285417135145	0	0	0
291	1	1	52.62787920470489	-27.594733582499074	46.48365846919173	0	0	0
292	1	1	53.491804228642984	-27.354593554706696	46.9263393023723	0	0	0
293	1	1	54.35572925258108	-26.851150693507673	46.939712354428885	0	0	0
294	1	1	55.21965427651917	-26.611010665715295	47.38239318760945	0	0	0
295	1	1	56.08357930045727	-26.107567804516272	47.39576623966604	0	0	0
296	1	1	56.94750432439536	-25.867427776723893	47.838447072846606	0	0	0
297	1	1	57.811429348333455	-25.36398491552487	47.85182012490319	0	0	0
298	1	1	58.67535437227155	-25.123844887732492	48.29450095808376	0	0	0
299	1	1	59.53927939620964	-24.62040202653347	48.307874010140345	0	0	0
300	1	1	27.271677390086204	-38.062676380328156	38.95779856687089	0	0	0
301	1	1	26.969301269672233	-37.302024582714054	38.38336186488378	0	0	0
302	1	1	26.66692514925826	-37.41917546069399	37.43739973372212	0	0	0
303	1	1	26.36454902884429	-36.65852366307989	36.862963031735006	0	0	0
304	1	1	26.06217290843032	-36.77567454105983	35.91700090057334	0	0	0
305	1	1	25.75979678801635	-36.015022743445726	35.34256419858623	0	0	0
306	1	1	25.457420667602378	-36.132173621425665	34.39660206742457	0	0	0
307	1	1	25.155044547188407	-35.37152182381156	33.822165365437456	0	0	0
308	1	1	24.852668426774436	-35.4886727017915	32.87620323427579	0	0	0
309	1	1	24.550292306360465	-34.7280209041774	32.30176653228868	0	0	0
310	1	1	24.247916185946494	-34.84517178215734	31.355804401127013	0	0	0
311	1	1	23.945540065532523	-34.084519984543235	30.781367699139903	0	0	0
312	1	1	23.643163945118552	-34.20167086252317	29.835405567978235	0	0	0
313	1	1	23.34078782470458	-33.44101906490907	29.260968865991124	0	0	0
314	1	1	23.03841170429061	-33.55816994288901	28.315006734829456	0	0	0
315	1	1	22.73603558387664	-32.79751814527491	27.740570032842346	0	0	0
316	1	1	22.433659463462668	-32.914669023254845	26.794607901680678	0	0	0
317	1	1	22.131283343048697	-32.15401722564074	26.220171199693567	0	0	0
318	1	1	21.828907222634726	-32.27116810362068	25.2742090685319	0	0	0
319	1	1	21.526531102220755	-31.51051630600658	24.69977236654479	0	0	0
320	1	1	21.224154981806784	-31.627667183986517	23.75381023538312	0	0	0
321	1	1	20.921778861392813	-30.867015386372415	23.17937353339601	0	0	0
322	1	1	20.619402740978842	-30.984166264352353	22.233411402234342	0	0	0
323	1	1	20.31702662056487	-30.22351446673825	21.65897470024723	0	0	0
324	1	1	20.0146505001509	-30.34066534471819	20.713012569085564	0	0	0
325	1	1	19.71227437973693	-29.580013547104087	20.138575867098453	0	0	0
326	1	1	19.409898259322958	-29.697164425084026	19.192613735936785	0	0	0
327	1	1	19.107522138908987	-28.936512627469924	18.618177033949674	0	0	0
328	1	1	18.805146018495016	-29.05366350544986	17.672214902788006	0	0	0
329	1	1	18.502769898081045	-28.29301170783576	17.097778200800896	0	0	0
330	1	1	18.200393777667074	-28.410162585815698	16.151816069639228	0	0	0
331	1	1	17.898017657253103	-27.649510788201596	15.577379367652116	0	0	0
332	1	1	17.595641536839132	-27.766661666181534	14.631417236490448	0	0	0
333	1	1	17.29326541642516	-27.006009868567432	14.056980534503335	0	0	0
334	1	1	16.99088929601119	-27.12316074654737	13.111018403341667	0	0	0
335	1	1	16.68851317559722	-26.362508948933268	12.536581701354555	0	0	0
336	1	1	16.386137055183248	-26.479659826913206	11.590619570192887	0	0	0
337	1	1	27.705246252793376	-39.42198749635713	39.75153043174487	0	0	0
338	1	1	27.836438995086578	-40.23539958930769	39.18483013051733	0	0	0
339	1	1	27.96763173737978	-41.13288249297831	39.60591551614421	0	0	0
340	1	1	28.09882447967298	-41.94629458592887	39.039215214916666	0	0	0
341	1	1	28.230017221966182	-42.84377748959949	39.46030060054355	0	0	0
342	1	1	28.361209964259384	-43.657189582550046	38.893600299316006	0	0	0
343	1	1	28.492402706552586	-44.55467248622067	39.31468568494289	0	0	0
344	1	1	28.623595448845787	-45.368084579171224	38.747985383715346	0	0	0
345	1	1	28.75478819113899	-46.265567482841846	39.16907076934223	0	0	0
346	1	1	28.88598093343219	-47.0789795757924	38.602370468114685	0	0	0
347	1	1	29.01717367572539	-47.976462479463024	39.02345585374157	0	0	0
348	1	1	29.148366418018593	-48.78987457241358	38.456755552514025	0	0	0
349	1	1	29.279559160311795	-49.6873574760842	38.877840938140906	0	0	0
350	1	1	29.410751902604996	-50.50076956903476	38.311140636913365	0	0	0
351	1	1	29.541944644898198	-51.39825247270538	38.732226022540246	0	0	0
352	1	1	29.6731373871914	-52.21166456565594	38.165525721312704	0	0	0
353	1	1	29.8043301294846	-53.10914746932656	38.586611106939586	0	0	0
354	1	1	29.935522871777803	-53.922559562277115	38.019910805712044	0	0	0
355	1	1	30.066715614071004	-54.820042465947736	38.440996191338925	0	0	0
356	1	1	30.197908356364206	-55.63345455889829	37.874295890111384	0	0	0
357	1	1	30.329101098657407	-56.530937462568914	38.295381275738265	0	0	0
358	1	1	30.46029384095061	-57.34434955551947	37.72868097451072	0	0	0
359	1	1	30.59148658324381	-58.24183245919009	38.149766360137605	0	0	0
360	1	1	30.722679325537012	-59.05524455214065	37.58306605891006	0	0	0
361	1	1	30.853872067830213	-59.95272745581127	38.004151444536944	0	0	0
362	1	1	30.985064810123415	-60.76613954876183	37.4374511433094	0	0	0
363	1	1	31.116257552416617	-61.66362245243245	37.858536528936284	0	0	0
364	1	1	31.247450294709818	-62.477034545383006	37.29183622770874	0	0	0
365	1	1	31.37864303700302	-63.37451744905363	37.712921613335624	0	0	0
366	1	1	31.50983577929622	-64.18792954200418	37.14622131210808	0	0	0
367	1	1	31.641028521589423	-65.0854124456748	37.56730669773496	0	0	0
368	1	1	31.772221263882624	-65.89882453862536	37.00060639650742	0	0	0
369	1	1	31.903414006175826	-66.79630744229598	37.4216917821343	0	0	0
370	1	1	32.034606748469024	-67.60971953524654	36.85499148090676	0	0	0
371	1	1	32.165799490762225	-68.50720243891716	37.27607686653364	0	0	0
372	1	1	32.29699223305543	-69.32061453186772	36.7093765653061	0	0	0
373	1	1	32.42818497534863	-70.21809743553834	37.13046195093298	0	0	0
374	1	1	32.55937771764183	-71.0315095284889	36.56376164970544	0	0	0
375	1	1	33.47834668917833	-71.01907918809583	36.16962776891001	0	0	0
376	1	1	34.397315660714824	-70.81124725714002	35.834512985845556	0	0	0
377	1	1	35.31628463225132	-70.99754920697966	35.48696786238803	0	0	0
378	1	1	36.23525360378781	-70.78971727602385	35.15185307932357	0	0	0
379	1	1	37.154222575324305	-70.97601922586348	34.804307955866044	0	0	0
380	1	1	38.0731915468608	-70.76818729490768	34.46919317280159	0	0	0
381	1	1	38.99216051839729	-70.95448924474731	34.12164804934406	0	0	0
382	1	1	39.911129489933785	-70.7466573137915	33.786533266279605	0	0	0
383	1	1	40.83009846147028	-70.93295926363113	33.438988142822076	0	0	0
384	1	1	41.74906743300677	-70.72512733267533	33.10387335975762	0	0	0
385	1	1	42.668036404543265	-70.91142928251496	32.75632823630009	0	0	0
386	1	1	43.58700537607976	-70.70359735155915	32.42121345323564	0	0	0
387	1	1	44.50597434761625	-70.88989930139878	32.07366832977811	0	0	0
388	1	1	45.424943319152746	-70.68206737044298	31.738553546713653	0	0	0
389	1	1	46.34391229068924	-70.86836932028261	31.391008423256128	0	0	0
390	1	1	47.26288126222573	-70.6605373893268	31.055893640191673	0	0	0
391	1	1	48.181850233762226	-70.84683933916644	30.708348516734148	0	0	0
392	1	1	49.10081920529872	-70.63900740821063	30.373233733669693	0	0	0
393	1	1	50.01978817683521	-70.82530935805026	30.025688610212168	0	0	0
394	1	1	50.93875714837171	-70.61747742709446	29.690573827147713	0	0	0
395	1	1	51.8577261199082	-70.80377937693409	29.343028703690187	0	0	0
396	1	1	52.776695091444694	-70.59594744597828	29.007913920625732	0	0	0
397	1	1	53.69566406298119	-70.78224939581791	28.660368797168207	0	0	0
398	1	1	54.61463303451768	-70.57441746486211	28.325254014103752	0	0	0
399	1	1	55.533602006054174	-70.76071941470174	27.977708890646227	0	0	0
400	1	1	56.45257097759067	-70.55288748374593	27.642594107581772	0	0	0
401	1	1	57.37153994912716	-70.73918943358557	27.295048984124247	0	0	0
402	1	1	58.290508920663655	-70.53135750262976	26.95993420105979	0	0	0
403	1	1	59.20947789220015	-70.71765945246939	26.612389077602266	0	0	0
404	1	1	60.12844686373664	-70.50982752151359	26.27727429453781	0	0	0
405	1	1	61.047415835273135	-70.69612947135322	25.929729171080286	0	0	0
406	1	1	61.96638480680963	-70.48829754039741	25.59461438801583	0	0	0
407	1	1	62.88535377834612	-70.67459949023704	25.247069264558306	0	0	0
408	1	1	63.804322749882616	-70.46676755928124	24.91195448149385	0	0	0
409	1	1	64.72329172141912	-70.65306950912087	24.564409358036325	0	0	0
410	1	1	65.64226069295562	-70.44523757816506	24.22929457497187	0	0	0
411	1	1	66.56122966449212	-70.6315395280047	23.881749451514345	0	0	0
412	1	1	31.8818403527016	-71.03877981158573	35.82830922969885	0	0	0
413	1	1	31.204302987761373	-70.67734985143699	35.18775360914999	0	0	0
414	1	1	30.526765622821145	-71.05137231129484	34.554468271697964	0	0	0
415	1	1	29.849228257880917	-70.6899423511461	33.913912651149104	0	0	0
416	1	1	29.17169089294069	-71.06396481100396	33.280627313697074	0	0	0
417	1	1	28.49415352800046	-70.70253485085522	32.640071693148215	0	0	0
418	1	1	27.81661616306023	-71.07655731071307	32.006786355696185	0	0	0
419	1	1	27.139078798120003	-70.71512735056433	31.366230735147326	0	0	0
420	1	1	26.461541433179775	-71.08914981042219	30.732945397695293	0	0	0
421	1	1	25.784004068239547	-70.72771985027344	30.092389777146433	0	0	0
422	1	1	25.10646670329932	-71.1017423101313	29.4591044396944	0	0	0
423	1	1	24.42892933835909	-70.74031234998256	28.81854881914554	0	0	0
424	1	1	23.751391973418862	-71.11433480984041	28.185263481693507	0	0	0
425	1	1	23.073854608478634	-70.75290484969167	27.544707861144648	0	0	0
426	1	1	22.396317243538405	-71.12692730954953	26.911422523692615	0	0	0
427	1	1	21.718779878598177	-70.76549734940079	26.270866903143755	0	0	0
428	1	1	21.04124251365795	-71.13951980925864	25.637581565691722	0	0	0
429	1	1	20.36370514871772	-70.7780898491099	24.997025945142862	0	0	0
430	1	1	19.686167783777492	-71.15211230896776	24.36374060769083	0	0	0
431	1	1	19.008630418837264	-70.79068234881902	23.72318498714197	0	0	0
432	1	1	18.331093053897035	-71.16470480867687	23.089899649689936	0	0	0
433	1	1	17.653555688956807	-70.80327484852813	22.449344029141077	0	0	0
434	1	1	16.97601832401658	-71.17729730838599	21.816058691689044	0	0	0
435	1	1	16.29848095907635	-70.81586734823725	21.175503071140184	0	0	0
436	1	1	15.620943594136122	-71.1898898080951	20.54221773368815	0	0	0
437	1	1	14.943406229195894	-70.82845984794636	19.90166211313929	0	0	0
438	1	1	14.265868864255665	-71.20248230780422	19.26837677568726	0	0	0