bb262nuc5bl43bn4d30tot700

693 atoms
692 bonds
706 angles

1 atom types
1 bond types
1 angle types

-1000 1000 xlo xhi
-1000 1000 ylo yhi
-1000 1000 zlo zhi

Masses

1 1

Atoms

1	1	1	0.0	0.0	0.0	0	0	0
2	1	1	0.0	0.0	1.0	0	0	0
3	1	1	0.0	-0.49999999999999994	1.8660254037844388	0	0	0
4	1	1	0.0	0.0	2.7320508075688776	0	0	0
5	1	1	0.0	-0.49999999999999994	3.5980762113533165	0	0	0
6	1	1	0.0	0.0	4.464101615137755	0	0	0
7	1	1	0.0	-0.49999999999999994	5.330127018922194	0	0	0
8	1	1	0.0	0.0	6.196152422706632	0	0	0
9	1	1	0.0	-0.49999999999999994	7.06217782649107	0	0	0
10	1	1	0.0	0.0	7.928203230275509	0	0	0
11	1	1	0.0	-0.49999999999999994	8.794228634059948	0	0	0
12	1	1	0.0	0.0	9.660254037844387	0	0	0
13	1	1	0.0	-0.49999999999999994	10.526279441628827	0	0	0
14	1	1	0.0	0.0	11.392304845413266	0	0	0
15	1	1	0.0	-0.49999999999999994	12.258330249197705	0	0	0
16	1	1	0.0	0.0	13.124355652982144	0	0	0
17	1	1	0.0	-0.49999999999999994	13.990381056766584	0	0	0
18	1	1	0.0	0.0	14.856406460551023	0	0	0
19	1	1	0.0	-0.49999999999999994	15.722431864335462	0	0	0
20	1	1	0.0	0.0	16.5884572681199	0	0	0
21	1	1	0.0	-0.49999999999999994	17.454482671904337	0	0	0
22	1	1	0.0	0.0	18.320508075688775	0	0	0
23	1	1	0.0	-0.49999999999999994	19.186533479473212	0	0	0
24	1	1	0.0	0.0	20.05255888325765	0	0	0
25	1	1	0.0	-0.49999999999999994	20.918584287042087	0	0	0
26	1	1	0.0	0.0	21.784609690826525	0	0	0
27	1	1	0.0	-0.49999999999999994	22.650635094610962	0	0	0
28	1	1	0.0	0.0	23.5166604983954	0	0	0
29	1	1	0.0	-0.49999999999999994	24.382685902179837	0	0	0
30	1	1	0.0	0.0	25.248711305964274	0	0	0
31	1	1	0.0	-0.49999999999999994	26.114736709748712	0	0	0
32	1	1	0.0	0.0	26.98076211353315	0	0	0
33	1	1	0.0	-0.49999999999999994	27.846787517317587	0	0	0
34	1	1	0.0	0.0	28.712812921102024	0	0	0
35	1	1	0.0	-0.49999999999999994	29.578838324886462	0	0	0
36	1	1	0.0	0.0	30.4448637286709	0	0	0
37	1	1	0.0	-0.49999999999999994	31.310889132455337	0	0	0
38	1	1	0.0	0.0	32.17691453623978	0	0	0
39	1	1	0.0	-0.49999999999999994	33.04293994002422	0	0	0
40	1	1	0.0	0.0	33.90896534380866	0	0	0
41	1	1	0.0	-0.49999999999999994	34.7749907475931	0	0	0
42	1	1	0.0	0.0	35.64101615137754	0	0	0
43	1	1	0.0	-0.49999999999999994	36.50704155516198	0	0	0
44	1	1	0.0	0.0	37.373066958946424	0	0	0
45	1	1	0.6541755450680652	-0.4208639586606046	38.00149983884326	0	0	0
46	1	1	1.3083510901361293	-1.0995592783463877	38.33530669807703	0	0	0
47	1	1	1.9625266352041932	-1.149821718135338	39.0899775159714	0	0	0
48	1	1	2.616702180272257	-1.828517037821121	39.423784375205166	0	0	0
49	1	1	3.270877725340321	-1.8787794776100715	40.17845519309954	0	0	0
50	1	1	3.925053270408385	-2.5574747972958547	40.512262052333305	0	0	0
51	1	1	4.5792288154764496	-2.6077372370848053	41.26693287022768	0	0	0
52	1	1	5.2334043605445135	-3.2864325567705883	41.600739729461445	0	0	0
53	1	1	5.8875799056125775	-3.336694996559539	42.35541054735582	0	0	0
54	1	1	6.5417554506806415	-4.015390316245322	42.689217406589584	0	0	0
55	1	1	7.195930995748705	-4.065652756034273	43.443888224483956	0	0	0
56	1	1	7.850106540816769	-4.744348075720056	43.777695083717724	0	0	0
57	1	1	8.504282085884833	-4.794610515509006	44.532365901612096	0	0	0
58	1	1	9.158457630952897	-5.473305835194789	44.86617276084586	0	0	0
59	1	1	9.812633176020961	-5.523568274983739	45.620843578740235	0	0	0
60	1	1	10.466808721089025	-6.202263594669522	45.954650437974	0	0	0
61	1	1	11.12098426615709	-6.252526034458472	46.709321255868375	0	0	0
62	1	1	11.775159811225153	-6.931221354144255	47.04312811510214	0	0	0
63	1	1	12.429335356293217	-6.981483793933205	47.797798932996514	0	0	0
64	1	1	13.083510901361281	-7.660179113618988	48.13160579223028	0	0	0
65	1	1	13.737686446429345	-7.7104415534079385	48.88627661012465	0	0	0
66	1	1	14.391861991497409	-8.389136873093722	49.22008346935842	0	0	0
67	1	1	15.046037536565473	-8.439399312882673	49.97475428725279	0	0	0
68	1	1	15.700213081633537	-9.118094632568456	50.30856114648656	0	0	0
69	1	1	16.354388626701603	-9.168357072357406	51.06323196438093	0	0	0
70	1	1	17.008564171769667	-9.847052392043189	51.3970388236147	0	0	0
71	1	1	17.66273971683773	-9.897314831832139	52.15170964150907	0	0	0
72	1	1	18.316915261905795	-10.576010151517922	52.48551650074284	0	0	0
73	1	1	18.97109080697386	-10.626272591306872	53.24018731863721	0	0	0
74	1	1	19.625266352041923	-11.304967910992655	53.57399417787098	0	0	0
75	1	1	20.279441897109987	-11.355230350781605	54.32866499576535	0	0	0
76	1	1	20.93361744217805	-12.033925670467388	54.66247185499912	0	0	0
77	1	1	21.587792987246115	-12.084188110256338	55.41714267289349	0	0	0
78	1	1	22.24196853231418	-12.762883429942121	55.75094953212726	0	0	0
79	1	1	22.896144077382242	-12.813145869731072	56.50562035002163	0	0	0
80	1	1	23.550319622450306	-13.491841189416855	56.8394272092554	0	0	0
81	1	1	24.20449516751837	-13.542103629205805	57.59409802714977	0	0	0
82	1	1	24.858670712586434	-14.220798948891588	57.92790488638354	0	0	0
83	1	1	25.5128462576545	-14.271061388680538	58.68257570427791	0	0	0
84	1	1	26.167021802722562	-14.949756708366321	59.01638256351168	0	0	0
85	1	1	26.821197347790626	-15.000019148155271	59.77105338140605	0	0	0
86	1	1	27.47537289285869	-15.678714467841054	60.104860240639816	0	0	0
87	1	1	28.129548437926754	-15.728976907630004	60.85953105853419	0	0	0
88	1	1	-0.9148551608115232	-0.029844535045415288	37.775744669360655	0	0	0
89	1	1	-1.8297103216230446	-0.25702951576599586	38.10955152859442	0	0	0
90	1	1	-2.744565482434566	-0.08153678607234438	38.47320292287361	0	0	0
91	1	1	-3.659420643246088	-0.30872176679292496	38.80700978210738	0	0	0
92	1	1	-4.574275804057609	-0.13322903709927347	39.17066117638657	0	0	0
93	1	1	-5.489130964869131	-0.36041401781985405	39.504468035620334	0	0	0
94	1	1	-6.403986125680652	-0.18492128812620257	39.86811942989952	0	0	0
95	1	1	-7.318841286492174	-0.41210626884678314	40.20192628913329	0	0	0
96	1	1	-8.233696447303695	-0.23661353915313166	40.56557768341248	0	0	0
97	1	1	-9.148551608115216	-0.46379851987371223	40.899384542646246	0	0	0
98	1	1	-10.063406768926738	-0.28830579018006075	41.263035936925434	0	0	0
99	1	1	-10.97826192973826	-0.5154907709006413	41.5968427961592	0	0	0
100	1	1	-11.893117090549781	-0.33999804120698984	41.96049419043839	0	0	0
101	1	1	-12.807972251361303	-0.5671830219275704	42.29430104967216	0	0	0
102	1	1	-13.722827412172824	-0.39169029223391894	42.657952443951345	0	0	0
103	1	1	-14.637682572984346	-0.6188752729544995	42.99175930318511	0	0	0
104	1	1	-15.552537733795868	-0.443382543260848	43.3554106974643	0	0	0
105	1	1	-16.46739289460739	-0.6705675239814286	43.68921755669807	0	0	0
106	1	1	-17.38224805541891	-0.4950747942877771	44.052868950977256	0	0	0
107	1	1	-18.29710321623043	-0.7222597750083577	44.386675810211024	0	0	0
108	1	1	-19.21195837704195	-0.5467670453147062	44.75032720449021	0	0	0
109	1	1	-20.12681353785347	-0.7739520260352868	45.08413406372398	0	0	0
110	1	1	-21.04166869866499	-0.5984592963416353	45.44778545800317	0	0	0
111	1	1	-21.95652385947651	-0.8256442770622159	45.781592317236935	0	0	0
112	1	1	-22.87137902028803	-0.6501515473685644	46.14524371151612	0	0	0
113	1	1	-23.786234181099548	-0.877336528089145	46.47905057074989	0	0	0
114	1	1	-24.701089341911068	-0.7018437983954935	46.84270196502908	0	0	0
115	1	1	-25.615944502722588	-0.9290287791160741	47.17650882426285	0	0	0
116	1	1	-26.530799663534108	-0.7535360494224226	47.540160218542034	0	0	0
117	1	1	-27.445654824345628	-0.9807210301430032	47.8739670777758	0	0	0
118	1	1	-28.360509985157147	-0.8052283004493517	48.23761847205499	0	0	0
119	1	1	-29.275365145968667	-1.0324132811699323	48.57142533128876	0	0	0
120	1	1	-30.190220306780187	-0.8569205514762808	48.935076725567946	0	0	0
121	1	1	-31.105075467591707	-1.0841055321968613	49.26888358480171	0	0	0
122	1	1	-32.01993062840323	-0.9086128025032099	49.6325349790809	0	0	0
123	1	1	-32.93478578921475	-1.1357977832237904	49.96634183831467	0	0	0
124	1	1	-33.84964095002627	-0.960305053530139	50.32999323259386	0	0	0
125	1	1	-34.76449611083779	-1.1874900342507195	50.663800091827625	0	0	0
126	1	1	-35.67935127164931	-1.011997304557068	51.02745148610681	0	0	0
127	1	1	-36.59420643246083	-1.2391822852776486	51.36125834534058	0	0	0
128	1	1	-37.50906159327235	-1.0636895555839971	51.72490973961977	0	0	0
129	1	1	-38.42391675408387	-1.2908745363045777	52.058716598853536	0	0	0
130	1	1	-39.33877191489539	-1.1153818066109262	52.422367993132724	0	0	0
131	1	1	0.26067961574346465	0.951418782556678	37.20921202879718	0	0	0
132	1	1	0.5213592314869289	1.857299082963042	37.54301888803096	0	0	0
133	1	1	0.7820388472303931	2.5993244532201674	36.92540696470805	0	0	0
134	1	1	1.0427184629738573	3.5052047536265314	37.25921382394183	0	0	0
135	1	1	1.3033980787173216	4.247230123883656	36.64160190061892	0	0	0
136	1	1	1.564077694460786	5.153110424290021	36.9754087598527	0	0	0
137	1	1	1.8247573102042502	5.895135794547146	36.35779683652979	0	0	0
138	1	1	2.0854369259477146	6.801016094953511	36.69160369576357	0	0	0
139	1	1	2.346116541691179	7.543041465210636	36.073991772440664	0	0	0
140	1	1	2.606796157434643	8.448921765617	36.40779863167444	0	0	0
141	1	1	2.8674757731781075	9.190947135874124	35.790186708351534	0	0	0
142	1	1	3.128155388921572	10.096827436280488	36.12399356758531	0	0	0
143	1	1	3.388835004665036	10.838852806537613	35.506381644262405	0	0	0
144	1	1	3.6495146204085005	11.744733106943977	35.84018850349618	0	0	0
145	1	1	3.910194236151965	12.486758477201102	35.222576580173275	0	0	0
146	1	1	4.170873851895429	13.392638777607466	35.55638343940705	0	0	0
147	1	1	4.431553467638893	14.13466414786459	34.938771516084145	0	0	0
148	1	1	4.692233083382357	15.040544448270955	35.27257837531792	0	0	0
149	1	1	4.952912699125821	15.78256981852808	34.654966451995016	0	0	0
150	1	1	5.213592314869285	16.688450118934444	34.98877331122879	0	0	0
151	1	1	5.4742719306127485	17.43047548919157	34.371161387905886	0	0	0
152	1	1	5.734951546356212	18.33635578959793	34.70496824713966	0	0	0
153	1	1	5.995631162099676	19.078381159855056	34.087356323816756	0	0	0
154	1	1	6.25631077784314	19.98426146026142	34.42116318305053	0	0	0
155	1	1	6.516990393586604	20.726286830518543	33.80355125972763	0	0	0
156	1	1	6.777670009330068	21.632167130924906	34.1373581189614	0	0	0
157	1	1	7.038349625073532	22.37419250118203	33.5197461956385	0	0	0
158	1	1	7.299029240816996	23.280072801588393	33.85355305487227	0	0	0
159	1	1	7.5597088565604595	24.022098171845517	33.23594113154937	0	0	0
160	1	1	7.820388472303923	24.92797847225188	33.56974799078314	0	0	0
161	1	1	8.081068088047388	25.670003842509004	32.95213606746024	0	0	0
162	1	1	8.341747703790853	26.575884142915367	33.28594292669401	0	0	0
163	1	1	8.602427319534318	27.31790951317249	32.66833100337111	0	0	0
164	1	1	8.863106935277782	28.223789813578854	33.00213786260488	0	0	0
165	1	1	9.123786551021247	28.96581518383598	32.38452593928198	0	0	0
166	1	1	9.384466166764712	29.87169548424234	32.71833279851575	0	0	0
167	1	1	9.645145782508177	30.613720854499466	32.10072087519285	0	0	0
168	1	1	9.905825398251642	31.51960115490583	32.434527734426624	0	0	0
169	1	1	10.166505013995106	32.26162652516295	31.81691581110372	0	0	0
170	1	1	10.427184629738571	33.16750682556932	32.150722670337494	0	0	0
171	1	1	10.687864245482036	33.90953219582644	31.53311074701459	0	0	0
172	1	1	10.9485438612255	34.81541249623281	31.86691760624836	0	0	0
173	1	1	11.209223476968965	35.557437866489934	31.249305682925456	0	0	0
174	1	1	11.46990309271243	36.4633181668963	31.583112542159228	0	0	0
175	1	1	10.648339484896823	37.01442263294918	31.729116329129223	0	0	0
176	1	1	9.826775877081218	37.41869120720503	32.13111155072041	0	0	0
177	1	1	9.005212269265613	37.96896356843088	31.98200230625872	0	0	0
178	1	1	8.183648661450007	38.37323214268673	32.38399752784991	0	0	0
179	1	1	7.362085053634402	38.92350450391258	32.234888283388216	0	0	0
180	1	1	6.540521445818797	39.327773078168434	32.6368835049794	0	0	0
181	1	1	5.718957838003192	39.878045439394285	32.48777426051771	0	0	0
182	1	1	4.897394230187587	40.28231401365014	32.889769482108896	0	0	0
183	1	1	4.075830622371981	40.83258637487599	32.740660237647205	0	0	0
184	1	1	3.254267014556376	41.23685494913184	33.14265545923839	0	0	0
185	1	1	2.432703406740771	41.78712731035769	32.9935462147767	0	0	0
186	1	1	1.6111397989251657	42.19139588461354	33.395541436367886	0	0	0
187	1	1	0.7895761911095606	42.74166824583939	33.246432191906194	0	0	0
188	1	1	-0.03198741670604455	43.145936820095244	33.64842741349738	0	0	0
189	1	1	-0.8535510245216497	43.696209181321095	33.49931816903569	0	0	0
190	1	1	-1.6751146323372548	44.10047775557695	33.901313390626875	0	0	0
191	1	1	-2.49667824015286	44.6507501168028	33.752204146165184	0	0	0
192	1	1	-3.318241847968465	45.05501869105865	34.15419936775637	0	0	0
193	1	1	-4.13980545578407	45.6052910522845	34.00509012329468	0	0	0
194	1	1	-4.961369063599675	46.00955962654035	34.407085344885864	0	0	0
195	1	1	-5.7829326714152804	46.5598319877662	34.25797610042417	0	0	0
196	1	1	-6.604496279230886	46.964100562022054	34.65997132201536	0	0	0
197	1	1	-7.426059887046491	47.514372923247905	34.51086207755367	0	0	0
198	1	1	-8.247623494862095	47.91864149750376	34.912857299144854	0	0	0
199	1	1	-9.0691871026777	48.46891385872961	34.76374805468316	0	0	0
200	1	1	-9.890750710493306	48.87318243298546	35.16574327627435	0	0	0
201	1	1	-10.712314318308911	49.42345479421131	35.01663403181266	0	0	0
202	1	1	-11.533877926124516	49.82772336846716	35.41862925340384	0	0	0
203	1	1	-12.355441533940121	50.37799572969301	35.26952000894215	0	0	0
204	1	1	-13.177005141755727	50.782264303948864	35.67151523053334	0	0	0
205	1	1	-13.998568749571332	51.332536665174715	35.52240598607165	0	0	0
206	1	1	-14.820132357386937	51.736805239430566	35.92440120766283	0	0	0
207	1	1	-15.641695965202542	52.28707760065642	35.77529196320114	0	0	0
208	1	1	-16.463259573018146	52.69134617491227	36.17728718479233	0	0	0
209	1	1	-17.28482318083375	53.24161853613812	36.028177940330636	0	0	0
210	1	1	-18.106386788649356	53.64588711039397	36.43017316192182	0	0	0
211	1	1	-18.92795039646496	54.19615947161982	36.28106391746013	0	0	0
212	1	1	-19.749514004280567	54.600428045875674	36.683059139051316	0	0	0
213	1	1	-20.571077612096172	55.150700407101525	36.533949894589625	0	0	0
214	1	1	-21.392641219911777	55.554968981357376	36.93594511618081	0	0	0
215	1	1	-22.214204827727382	56.10524134258323	36.78683587171912	0	0	0
216	1	1	-23.035768435542987	56.50950991683908	37.188831093310306	0	0	0
217	1	1	-23.857332043358593	57.05978227806493	37.039721848848615	0	0	0
218	1	1	12.05598380569292	36.91181252677666	30.90830723169717	0	0	0
219	1	1	12.642064518673408	37.63762269111811	30.548155870168557	0	0	0
220	1	1	13.228145231653896	37.68862754499751	29.739510148759592	0	0	0
221	1	1	13.814225944634384	38.41443770933896	29.37935878723098	0	0	0
222	1	1	14.400306657614871	38.46544256321836	28.570713065822016	0	0	0
223	1	1	14.98638737059536	39.191252727559814	28.210561704293404	0	0	0
224	1	1	15.572468083575847	39.24225758143921	27.40191598288444	0	0	0
225	1	1	16.158548796556335	39.968067745780665	27.041764621355828	0	0	0
226	1	1	16.744629509536825	40.01907259966006	26.233118899946863	0	0	0
227	1	1	17.330710222517315	40.74488276400152	25.87296753841825	0	0	0
228	1	1	17.916790935497804	40.795887617880915	25.064321817009287	0	0	0
229	1	1	18.502871648478294	41.52169778222237	24.704170455480675	0	0	0
230	1	1	19.088952361458784	41.572702636101766	23.89552473407171	0	0	0
231	1	1	19.675033074439273	42.29851280044322	23.5353733725431	0	0	0
232	1	1	20.261113787419763	42.34951765432262	22.726727651134134	0	0	0
233	1	1	20.847194500400253	43.07532781866407	22.366576289605522	0	0	0
234	1	1	21.433275213380742	43.12633267254347	21.557930568196557	0	0	0
235	1	1	22.019355926361232	43.85214283688492	21.197779206667946	0	0	0
236	1	1	22.605436639341722	43.90314769076432	20.38913348525898	0	0	0
237	1	1	23.19151735232221	44.628957855105774	20.02898212373037	0	0	0
238	1	1	23.7775980653027	44.67996270898517	19.220336402321404	0	0	0
239	1	1	24.36367877828319	45.405772873326626	18.860185040792793	0	0	0
240	1	1	24.94975949126368	45.456777727206024	18.051539319383828	0	0	0
241	1	1	25.53584020424417	46.18258789154748	17.691387957855216	0	0	0
242	1	1	26.12192091722466	46.233592745426876	16.88274223644625	0	0	0
243	1	1	26.70800163020515	46.95940290976833	16.52259087491764	0	0	0
244	1	1	27.29408234318564	47.01040776364773	15.713945153508675	0	0	0
245	1	1	27.88016305616613	47.73621792798918	15.353793791980063	0	0	0
246	1	1	28.46624376914662	47.78722278186858	14.545148070571098	0	0	0
247	1	1	29.05232448212711	48.51303294621003	14.184996709042487	0	0	0
248	1	1	29.638405195107598	48.56403780008943	13.376350987633522	0	0	0
249	1	1	30.224485908088088	49.289847964430884	13.01619962610491	0	0	0
250	1	1	30.810566621068578	49.34085281831028	12.207553904695946	0	0	0
251	1	1	31.396647334049067	50.066662982651735	11.847402543167334	0	0	0
252	1	1	31.982728047029557	50.11766783653113	11.03875682175837	0	0	0
253	1	1	32.56880876001004	50.84347800087259	10.678605460229758	0	0	0
254	1	1	33.15488947299053	50.894482854751985	9.869959738820793	0	0	0
255	1	1	33.74097018597102	51.62029301909344	9.509808377292181	0	0	0
256	1	1	34.32705089895151	51.671297872972836	8.701162655883216	0	0	0
257	1	1	34.913131611932	52.39710803731429	8.341011294354605	0	0	0
258	1	1	35.49921232491249	52.44811289119369	7.532365572945641	0	0	0
259	1	1	36.08529303789298	53.17392305553514	7.172214211417029	0	0	0
260	1	1	36.67137375087347	53.22492790941454	6.363568490008065	0	0	0
261	1	1	11.966435918940324	36.37088651472426	32.44619512346584	0	0	0
262	1	1	12.462968745168217	35.8592970651762	33.1474307383552	0	0	0
263	1	1	12.95950157139611	36.21079019693475	33.94109800541659	0	0	0
264	1	1	13.456034397624004	35.69920074738669	34.64233362030595	0	0	0
265	1	1	13.952567223851897	36.05069387914524	35.43600088736734	0	0	0
266	1	1	14.44910005007979	35.53910442959718	36.1372365022567	0	0	0
267	1	1	14.945632876307684	35.89059756135573	36.93090376931809	0	0	0
268	1	1	15.442165702535577	35.37900811180767	37.63213938420745	0	0	0
269	1	1	15.93869852876347	35.73050124356622	38.42580665126884	0	0	0
270	1	1	16.435231354991362	35.21891179401816	39.1270422661582	0	0	0
271	1	1	16.931764181219254	35.570404925776714	39.92070953321959	0	0	0
272	1	1	17.428297007447146	35.05881547622865	40.62194514810895	0	0	0
273	1	1	17.924829833675037	35.410308607987204	41.415612415170344	0	0	0
274	1	1	18.42136265990293	34.89871915843914	42.1168480300597	0	0	0
275	1	1	18.91789548613082	35.250212290197695	42.910515297121094	0	0	0
276	1	1	19.414428312358712	34.73862284064963	43.61175091201045	0	0	0
277	1	1	19.910961138586604	35.090115972408185	44.405418179071845	0	0	0
278	1	1	20.407493964814496	34.57852652286012	45.1066537939612	0	0	0
279	1	1	20.904026791042387	34.930019654618675	45.900321061022595	0	0	0
280	1	1	21.40055961727028	34.418430205070614	46.60155667591195	0	0	0
281	1	1	21.89709244349817	34.769923336829166	47.395223942973345	0	0	0
282	1	1	22.393625269726062	34.258333887281104	48.0964595578627	0	0	0
283	1	1	22.890158095953954	34.609827019039656	48.890126824924096	0	0	0
284	1	1	23.386690922181845	34.098237569491594	49.59136243981345	0	0	0
285	1	1	23.883223748409737	34.44973070125015	50.385029706874846	0	0	0
286	1	1	24.37975657463763	33.938141251702085	51.0862653217642	0	0	0
287	1	1	24.87628940086552	34.28963438346064	51.879932588825596	0	0	0
288	1	1	25.372822227093412	33.778044933912575	52.58116820371495	0	0	0
289	1	1	25.869355053321303	34.12953806567113	53.37483547077635	0	0	0
290	1	1	26.365887879549195	33.617948616123066	54.0760710856657	0	0	0
291	1	1	26.862420705777087	33.96944174788162	54.8697383527271	0	0	0
292	1	1	27.35895353200498	33.457852298333556	55.57097396761645	0	0	0
293	1	1	27.85548635823287	33.80934543009211	56.36464123467785	0	0	0
294	1	1	28.35201918446076	33.297755980544046	57.0658768495672	0	0	0
295	1	1	28.848552010688653	33.6492491123026	57.8595441166286	0	0	0
296	1	1	29.345084836916545	33.13765966275454	58.560779731517954	0	0	0
297	1	1	29.841617663144437	33.48915279451309	59.35444699857935	0	0	0
298	1	1	30.338150489372328	32.97756334496503	60.055682613468704	0	0	0
299	1	1	30.83468331560022	33.32905647672358	60.8493498805301	0	0	0
300	1	1	31.33121614182811	32.81746702717552	61.550585495419455	0	0	0
301	1	1	31.827748968056003	33.16896015893407	62.34425276248085	0	0	0
302	1	1	32.3242817942839	32.65737070938601	63.045488377370205	0	0	0
303	1	1	32.82081462051179	33.00886384114456	63.8391556444316	0	0	0
304	1	1	33.31734744673968	32.4972743915965	64.54039125932096	0	0	0
305	1	1	33.53994977528301	31.585990752100198	64.19396618558429	0	0	0
306	1	1	33.762552103826344	30.970008507111597	63.43831145147228	0	0	0
307	1	1	33.985154432369676	30.00760118838632	63.59394035685657	0	0	0
308	1	1	34.20775676091301	29.39161894339772	62.838285622744564	0	0	0
309	1	1	34.43035908945634	28.429211624672444	62.993914528128855	0	0	0
310	1	1	34.65296141799967	27.813229379683843	62.23825979401685	0	0	0
311	1	1	34.875563746543	26.850822060958567	62.39388869940114	0	0	0
312	1	1	35.09816607508633	26.234839815969966	61.63823396528913	0	0	0
313	1	1	35.320768403629664	25.27243249724469	61.79386287067342	0	0	0
314	1	1	35.543370732172995	24.65645025225609	61.038208136561416	0	0	0
315	1	1	35.76597306071633	23.694042933530813	61.193837041945706	0	0	0
316	1	1	35.98857538925966	23.078060688542212	60.4381823078337	0	0	0
317	1	1	36.21117771780299	22.115653369816936	60.59381121321799	0	0	0
318	1	1	36.43378004634632	21.499671124828335	59.83815647910598	0	0	0
319	1	1	36.65638237488965	20.53726380610306	59.99378538449027	0	0	0
320	1	1	36.878984703432984	19.92128156111446	59.23813065037827	0	0	0
321	1	1	37.101587031976315	18.958874242389182	59.39375955576256	0	0	0
322	1	1	37.32418936051965	18.34289199740058	58.63810482165055	0	0	0
323	1	1	37.54679168906298	17.380484678675305	58.79373372703484	0	0	0
324	1	1	37.76939401760631	16.764502433686705	58.038078992922834	0	0	0
325	1	1	37.99199634614964	15.80209511496143	58.193707898307125	0	0	0
326	1	1	38.21459867469297	15.186112869972831	57.43805316419512	0	0	0
327	1	1	38.437201003236304	14.223705551247557	57.59368206957941	0	0	0
328	1	1	38.659803331779635	13.607723306258958	56.8380273354674	0	0	0
329	1	1	38.882405660322966	12.645315987533683	56.99365624085169	0	0	0
330	1	1	39.1050079888663	12.029333742545084	56.238001506739685	0	0	0
331	1	1	39.32761031740963	11.06692642381981	56.393630412123976	0	0	0
332	1	1	39.55021264595296	10.450944178831211	55.63797567801197	0	0	0
333	1	1	39.77281497449629	9.488536860105937	55.79360458339626	0	0	0
334	1	1	39.99541730303962	8.872554615117338	55.03794984928425	0	0	0
335	1	1	40.218019631582955	7.910147296392063	55.19357875466854	0	0	0
336	1	1	40.440621960126286	7.294165051403463	54.43792402055654	0	0	0
337	1	1	40.66322428866962	6.331757732678189	54.59355292594083	0	0	0
338	1	1	40.88582661721295	5.715775487689589	53.83789819182882	0	0	0
339	1	1	41.10842894575628	4.753368168964315	53.99352709721311	0	0	0
340	1	1	41.33103127429961	4.137385923975715	53.237872363101104	0	0	0
341	1	1	41.55363360284294	3.17497860525044	53.393501268485394	0	0	0
342	1	1	41.776235931386275	2.55899636026184	52.63784653437339	0	0	0
343	1	1	41.998838259929606	1.5965890415365651	52.79347543975768	0	0	0
344	1	1	42.22144058847294	0.9806067965479653	52.03782070564567	0	0	0
345	1	1	42.44404291701627	0.018199477822690602	52.19344961102996	0	0	0
346	1	1	42.6666452455596	-0.5977827671659092	51.437794876917955	0	0	0
347	1	1	42.88924757410293	-1.560190085891184	51.593423782302246	0	0	0
348	1	1	32.74777044747278	32.412608159054294	65.35795695758209	0	0	0
349	1	1	32.178193448205874	31.930502201699458	66.0236565052679	0	0	0
350	1	1	31.60861644893897	32.265961942605756	66.7740222854959	0	0	0
351	1	1	31.039039449672067	31.78385598525092	67.43972183318171	0	0	0
352	1	1	30.469462450405164	32.11931572615722	68.19008761340972	0	0	0
353	1	1	29.89988545113826	31.637209768802382	68.85578716109552	0	0	0
354	1	1	29.330308451871357	31.97266950970868	69.60615294132353	0	0	0
355	1	1	28.760731452604453	31.490563552353844	70.27185248900933	0	0	0
356	1	1	28.19115445333755	31.826023293260143	71.02221826923734	0	0	0
357	1	1	27.621577454070646	31.343917335905306	71.68791781692315	0	0	0
358	1	1	27.052000454803743	31.679377076811605	72.43828359715116	0	0	0
359	1	1	26.48242345553684	31.19727111945677	73.10398314483696	0	0	0
360	1	1	25.912846456269936	31.532730860363067	73.85434892506497	0	0	0
361	1	1	25.343269457003032	31.05062490300823	74.52004847275077	0	0	0
362	1	1	24.77369245773613	31.38608464391453	75.27041425297878	0	0	0
363	1	1	24.204115458469225	30.903978686559693	75.93611380066459	0	0	0
364	1	1	23.63453845920232	31.23943842746599	76.6864795808926	0	0	0
365	1	1	23.064961459935418	30.757332470111155	77.3521791285784	0	0	0
366	1	1	22.495384460668514	31.092792211017453	78.10254490880641	0	0	0
367	1	1	21.92580746140161	30.610686253662617	78.76824445649221	0	0	0
368	1	1	21.356230462134707	30.946145994568916	79.51861023672022	0	0	0
369	1	1	20.786653462867804	30.46404003721408	80.18430978440603	0	0	0
370	1	1	20.2170764636009	30.799499778120378	80.93467556463403	0	0	0
371	1	1	19.647499464333997	30.317393820765542	81.60037511231984	0	0	0
372	1	1	19.077922465067093	30.65285356167184	82.35074089254785	0	0	0
373	1	1	18.50834546580019	30.170747604317004	83.01644044023365	0	0	0
374	1	1	17.938768466533286	30.506207345223302	83.76680622046166	0	0	0
375	1	1	17.369191467266383	30.024101387868466	84.43250576814746	0	0	0
376	1	1	16.79961446799948	30.359561128774764	85.18287154837547	0	0	0
377	1	1	16.230037468732576	29.87745517141993	85.84857109606128	0	0	0
378	1	1	15.660460469465672	30.212914912326227	86.59893687628929	0	0	0
379	1	1	15.090883470198769	29.73080895497139	87.26463642397509	0	0	0
380	1	1	14.521306470931865	30.06626869587769	88.0150022042031	0	0	0
381	1	1	13.951729471664962	29.584162738522853	88.6807017518889	0	0	0
382	1	1	13.382152472398058	29.91962247942915	89.43106753211691	0	0	0
383	1	1	12.812575473131155	29.437516522074315	90.09676707980272	0	0	0
384	1	1	12.242998473864251	29.772976262980613	90.84713286003073	0	0	0
385	1	1	11.673421474597347	29.290870305625777	91.51283240771653	0	0	0
386	1	1	11.103844475330444	29.626330046532075	92.26319818794454	0	0	0
387	1	1	10.53426747606354	29.14422408917724	92.92889773563034	0	0	0
388	1	1	9.964690476796637	29.479683830083538	93.67926351585835	0	0	0
389	1	1	9.395113477529733	28.9975778727287	94.34496306354416	0	0	0
390	1	1	8.82553647826283	29.333037613635	95.09532884377217	0	0	0
391	1	1	34.16156030715205	32.98090806152269	64.77148240936373	0	0	0
392	1	1	35.00577316756442	33.28420153078288	65.21343005085363	0	0	0
393	1	1	35.84998602797679	33.81858615008584	65.17174402241734	0	0	0
394	1	1	36.69419888838916	34.12187961934603	65.61369166390725	0	0	0
395	1	1	37.53841174880153	34.656264238648994	65.57200563547096	0	0	0
396	1	1	38.3826246092139	34.959557707909184	66.01395327696086	0	0	0
397	1	1	39.22683746962627	35.493942327212146	65.97226724852457	0	0	0
398	1	1	40.07105033003864	35.797235796472336	66.41421489001448	0	0	0
399	1	1	40.91526319045101	36.3316204157753	66.37252886157819	0	0	0
400	1	1	41.75947605086338	36.63491388503549	66.8144765030681	0	0	0
401	1	1	42.603688911275746	37.16929850433845	66.7727904746318	0	0	0
402	1	1	43.447901771688116	37.47259197359864	67.21473811612171	0	0	0
403	1	1	44.292114632100485	38.0069765929016	67.17305208768542	0	0	0
404	1	1	45.136327492512855	38.31027006216179	67.61499972917532	0	0	0
405	1	1	45.980540352925225	38.84465468146475	67.57331370073904	0	0	0
406	1	1	46.824753213337594	39.14794815072494	68.01526134222894	0	0	0
407	1	1	47.668966073749964	39.682332770027905	67.97357531379265	0	0	0
408	1	1	48.51317893416233	39.985626239288095	68.41552295528255	0	0	0
409	1	1	49.3573917945747	40.52001085859106	68.37383692684627	0	0	0
410	1	1	50.20160465498707	40.82330432785125	68.81578456833617	0	0	0
411	1	1	51.04581751539944	41.35768894715421	68.77409853989988	0	0	0
412	1	1	51.89003037581181	41.6609824164144	69.21604618138979	0	0	0
413	1	1	52.73424323622418	42.19536703571736	69.1743601529535	0	0	0
414	1	1	53.57845609663655	42.49866050497755	69.6163077944434	0	0	0
415	1	1	54.42266895704892	43.03304512428051	69.57462176600711	0	0	0
416	1	1	55.26688181746129	43.3363385935407	70.01656940749702	0	0	0
417	1	1	56.11109467787366	43.870723212843664	69.97488337906073	0	0	0
418	1	1	56.95530753828603	44.174016682103854	70.41683102055063	0	0	0
419	1	1	57.7995203986984	44.708401301406816	70.37514499211434	0	0	0
420	1	1	58.64373325911077	45.011694770667006	70.81709263360425	0	0	0
421	1	1	59.48794611952314	45.54607938996997	70.77540660516796	0	0	0
422	1	1	60.33215897993551	45.84937285923016	71.21735424665786	0	0	0
423	1	1	61.176371840347876	46.38375747853312	71.17566821822157	0	0	0
424	1	1	62.020584700760246	46.68705094779331	71.61761585971148	0	0	0
425	1	1	62.864797561172615	47.22143556709627	71.57592983127519	0	0	0
426	1	1	63.709010421584985	47.52472903635646	72.0178774727651	0	0	0
427	1	1	64.55322328199735	48.059113655659424	71.9761914443288	0	0	0
428	1	1	65.39743614240972	48.36240712491961	72.41813908581871	0	0	0
429	1	1	66.24164900282209	48.896791744222575	72.37645305738242	0	0	0
430	1	1	67.08586186323446	49.200085213482765	72.81840069887232	0	0	0
431	1	1	67.93007472364683	49.73446983278573	72.77671467043604	0	0	0
432	1	1	68.7742875840592	50.03776330204592	73.21866231192594	0	0	0
433	1	1	69.61850044447156	50.57214792134888	73.17697628348965	0	0	0
434	1	1	70.46271330488393	50.87544139060907	73.61892392497955	0	0	0
435	1	1	70.24538305954796	51.54220121224473	74.33180463359398	0	0	0
436	1	1	70.02805281421199	51.763191801696784	75.28255734793974	0	0	0
437	1	1	69.81072256887602	52.697063099763255	75.56655024064985	0	0	0
438	1	1	69.59339232354004	52.91805368921531	76.51730295499561	0	0	0
439	1	1	69.37606207820407	53.851924987281784	76.80129584770572	0	0	0
440	1	1	69.1587318328681	54.07291557673384	77.75204856205148	0	0	0
441	1	1	68.94140158753213	55.00678687480031	78.03604145476159	0	0	0
442	1	1	68.72407134219615	55.22777746425237	78.98679416910736	0	0	0
443	1	1	68.50674109686018	56.16164876231884	79.27078706181746	0	0	0
444	1	1	68.28941085152421	56.3826393517709	80.22153977616323	0	0	0