bb337nuc5bl56bn4d30tot900

897 atoms
896 bonds
910 angles

1 atom types
1 bond types
1 angle types

-1000 1000 xlo xhi
-1000 1000 ylo yhi
-1000 1000 zlo zhi

Masses

1 1

Atoms

1	1	1	0.0	0.0	0.0	0	0	0
2	1	1	0.0	0.0	1.0	0	0	0
3	1	1	0.0	-0.49999999999999994	1.8660254037844388	0	0	0
4	1	1	0.0	0.0	2.7320508075688776	0	0	0
5	1	1	0.0	-0.49999999999999994	3.5980762113533165	0	0	0
6	1	1	0.0	0.0	4.464101615137755	0	0	0
7	1	1	0.0	-0.49999999999999994	5.330127018922194	0	0	0
8	1	1	0.0	0.0	6.196152422706632	0	0	0
9	1	1	0.0	-0.49999999999999994	7.06217782649107	0	0	0
10	1	1	0.0	0.0	7.928203230275509	0	0	0
11	1	1	0.0	-0.49999999999999994	8.794228634059948	0	0	0
12	1	1	0.0	0.0	9.660254037844387	0	0	0
13	1	1	0.0	-0.49999999999999994	10.526279441628827	0	0	0
14	1	1	0.0	0.0	11.392304845413266	0	0	0
15	1	1	0.0	-0.49999999999999994	12.258330249197705	0	0	0
16	1	1	0.0	0.0	13.124355652982144	0	0	0
17	1	1	0.0	-0.49999999999999994	13.990381056766584	0	0	0
18	1	1	0.0	0.0	14.856406460551023	0	0	0
19	1	1	0.0	-0.49999999999999994	15.722431864335462	0	0	0
20	1	1	0.0	0.0	16.5884572681199	0	0	0
21	1	1	0.0	-0.49999999999999994	17.454482671904337	0	0	0
22	1	1	0.0	0.0	18.320508075688775	0	0	0
23	1	1	0.0	-0.49999999999999994	19.186533479473212	0	0	0
24	1	1	0.0	0.0	20.05255888325765	0	0	0
25	1	1	0.0	-0.49999999999999994	20.918584287042087	0	0	0
26	1	1	0.0	0.0	21.784609690826525	0	0	0
27	1	1	0.0	-0.49999999999999994	22.650635094610962	0	0	0
28	1	1	0.0	0.0	23.5166604983954	0	0	0
29	1	1	0.0	-0.49999999999999994	24.382685902179837	0	0	0
30	1	1	0.0	0.0	25.248711305964274	0	0	0
31	1	1	0.0	-0.49999999999999994	26.114736709748712	0	0	0
32	1	1	0.0	0.0	26.98076211353315	0	0	0
33	1	1	0.0	-0.49999999999999994	27.846787517317587	0	0	0
34	1	1	0.0	0.0	28.712812921102024	0	0	0
35	1	1	0.0	-0.49999999999999994	29.578838324886462	0	0	0
36	1	1	0.0	0.0	30.4448637286709	0	0	0
37	1	1	0.0	-0.49999999999999994	31.310889132455337	0	0	0
38	1	1	0.0	0.0	32.17691453623978	0	0	0
39	1	1	0.0	-0.49999999999999994	33.04293994002422	0	0	0
40	1	1	0.0	0.0	33.90896534380866	0	0	0
41	1	1	0.0	-0.49999999999999994	34.7749907475931	0	0	0
42	1	1	0.0	0.0	35.64101615137754	0	0	0
43	1	1	0.0	-0.49999999999999994	36.50704155516198	0	0	0
44	1	1	0.0	0.0	37.373066958946424	0	0	0
45	1	1	0.0	-0.49999999999999994	38.239092362730865	0	0	0
46	1	1	0.0	0.0	39.105117766515306	0	0	0
47	1	1	0.0	-0.49999999999999994	39.97114317029975	0	0	0
48	1	1	0.0	0.0	40.83716857408419	0	0	0
49	1	1	0.0	-0.49999999999999994	41.70319397786863	0	0	0
50	1	1	0.0	0.0	42.56921938165307	0	0	0
51	1	1	0.0	-0.49999999999999994	43.43524478543751	0	0	0
52	1	1	0.0	0.0	44.30127018922195	0	0	0
53	1	1	0.0	-0.49999999999999994	45.16729559300639	0	0	0
54	1	1	0.0	0.0	46.033320996790835	0	0	0
55	1	1	0.0	-0.49999999999999994	46.899346400575276	0	0	0
56	1	1	0.0	0.0	47.76537180435972	0	0	0
57	1	1	0.0	-0.49999999999999994	48.63139720814416	0	0	0
58	1	1	0.8908046832602897	-0.39992028828111104	49.0746252167174	0	0	0
59	1	1	1.7816093665205777	-0.5348627198157514	49.50851178767006	0	0	0
60	1	1	2.6724140497808655	-0.22657714277714935	49.84231864690383	0	0	0
61	1	1	3.5632187330411536	-0.3615195743117897	50.276205217856486	0	0	0
62	1	1	4.454023416301442	-0.05323399727318767	50.61001207709025	0	0	0
63	1	1	5.344828099561729	-0.18817642880782803	51.04389864804291	0	0	0
64	1	1	6.235632782822017	0.12010914823077401	51.37770550727668	0	0	0
65	1	1	7.126437466082304	-0.014833283303866351	51.81159207822934	0	0	0
66	1	1	8.017242149342593	0.2934522937347357	52.145398937463106	0	0	0
67	1	1	8.908046832602881	0.15850986220009533	52.579285508415765	0	0	0
68	1	1	9.79885151586317	0.4667954392386974	52.91309236764953	0	0	0
69	1	1	10.689656199123458	0.331853007704057	53.34697893860219	0	0	0
70	1	1	11.580460882383747	0.6401385847426591	53.68078579783596	0	0	0
71	1	1	12.471265565644035	0.5051961532080187	54.11467236878862	0	0	0
72	1	1	13.362070248904324	0.8134817302466207	54.448479228022386	0	0	0
73	1	1	14.252874932164612	0.6785392987119804	54.882365798975044	0	0	0
74	1	1	15.143679615424901	0.9868248757505824	55.21617265820881	0	0	0
75	1	1	16.03448429868519	0.8518824442159421	55.65005922916147	0	0	0
76	1	1	16.925288981945478	1.160168021254544	55.98386608839524	0	0	0
77	1	1	17.816093665205766	1.0252255897199036	56.4177526593479	0	0	0
78	1	1	18.706898348466055	1.3335111667585058	56.751559518581665	0	0	0
79	1	1	19.597703031726343	1.1985687352238654	57.185446089534324	0	0	0
80	1	1	20.488507714986632	1.5068543122624676	57.51925294876809	0	0	0
81	1	1	21.37931239824692	1.3719118807278272	57.95313951972075	0	0	0
82	1	1	22.27011708150721	1.6801974577664294	58.28694637895452	0	0	0
83	1	1	23.160921764767497	1.545255026231789	58.72083294990718	0	0	0
84	1	1	24.051726448027786	1.8535406032703912	59.054639809140944	0	0	0
85	1	1	24.942531131288074	1.7185981717357508	59.4885263800936	0	0	0
86	1	1	25.833335814548363	2.026883748774353	59.82233323932737	0	0	0
87	1	1	26.72414049780865	1.8919413172397126	60.25621981028003	0	0	0
88	1	1	27.61494518106894	2.2002268942783147	60.5900266695138	0	0	0
89	1	1	28.50574986432923	2.0652844627436746	61.023913240466456	0	0	0
90	1	1	29.396554547589517	2.3735700397822765	61.357720099700224	0	0	0
91	1	1	30.287359230849805	2.2386276082476364	61.79160667065288	0	0	0
92	1	1	31.178163914110094	2.5469131852862383	62.12541352988665	0	0	0
93	1	1	32.06896859737038	2.411970753751598	62.55930010083931	0	0	0
94	1	1	32.959773280630664	2.7202563307902	62.89310696007308	0	0	0
95	1	1	33.85057796389095	2.58531389925556	63.326993531025735	0	0	0
96	1	1	34.741382647151234	2.893599476294162	63.6608003902595	0	0	0
97	1	1	35.63218733041152	2.758657044759522	64.09468696121216	0	0	0
98	1	1	36.522992013671804	3.0669426217981237	64.42849382044594	0	0	0
99	1	1	37.41379669693209	2.9320001902634836	64.8623803913986	0	0	0
100	1	1	38.30460138019237	3.2402857673020855	65.19618725063238	0	0	0
101	1	1	39.19540606345266	3.1053433357674454	65.63007382158504	0	0	0
102	1	1	40.08621074671294	3.4136289128060473	65.96388068081882	0	0	0
103	1	1	40.97701542997323	3.278686481271407	66.39776725177148	0	0	0
104	1	1	41.86782011323351	3.586972058310009	66.73157411100526	0	0	0
105	1	1	42.7586247964938	3.452029626775369	67.16546068195792	0	0	0
106	1	1	43.64942947975408	3.760315203813971	67.4992675411917	0	0	0
107	1	1	44.54023416301437	3.6253727722793307	67.93315411214436	0	0	0
108	1	1	45.43103884627465	3.9336583493179327	68.26696097137814	0	0	0
109	1	1	46.32184352953494	3.7987159177832925	68.7008475423308	0	0	0
110	1	1	47.21264821279522	4.107001494821895	69.03465440156458	0	0	0
111	1	1	48.10345289605551	3.9720590632872543	69.46854097251725	0	0	0
112	1	1	48.99425757931579	4.280344640325857	69.80234783175102	0	0	0
113	1	1	49.88506226257608	4.145402208791216	70.23623440270369	0	0	0
114	1	1	-0.17841920029437452	-1.4684985127299897	48.45768129118167	0	0	0
115	1	1	-0.3568384005887487	-2.2203848698003625	47.82298963768545	0	0	0
116	1	1	-0.5352576008831229	-3.145987143833222	48.15679649691923	0	0	0
117	1	1	-0.7136768011774971	-3.8978735009035947	47.52210484342301	0	0	0
118	1	1	-0.8920960014718713	-4.823475774936454	47.85591170265678	0	0	0
119	1	1	-1.0705152017662454	-5.575362132006827	47.221220049160564	0	0	0
120	1	1	-1.2489344020606195	-6.500964406039686	47.55502690839434	0	0	0
121	1	1	-1.4273536023549935	-7.252850763110059	46.92033525489812	0	0	0
122	1	1	-1.6057728026493676	-8.17845303714292	47.254142114131895	0	0	0
123	1	1	-1.7841920029437417	-8.930339394213291	46.619450460635676	0	0	0
124	1	1	-1.9626112032381158	-9.855941668246151	46.95325731986945	0	0	0
125	1	1	-2.14103040353249	-10.607828025316524	46.31856566637323	0	0	0
126	1	1	-2.319449603826864	-11.533430299349384	46.65237252560701	0	0	0
127	1	1	-2.4978688041212385	-12.285316656419756	46.01768087211079	0	0	0
128	1	1	-2.6762880044156128	-13.210918930452616	46.35148773134456	0	0	0
129	1	1	-2.854707204709987	-13.962805287522988	45.71679607784834	0	0	0
130	1	1	-3.0331264050043614	-14.888407561555848	46.05060293708212	0	0	0
131	1	1	-3.2115456052987357	-15.64029391862622	45.4159112835859	0	0	0
132	1	1	-3.38996480559311	-16.56589619265908	45.749718142819674	0	0	0
133	1	1	-3.5683840058874843	-17.31778254972945	45.115026489323455	0	0	0
134	1	1	-3.7468032061818586	-18.24338482376231	45.44883334855723	0	0	0
135	1	1	-3.925222406476233	-18.99527118083268	44.81414169506101	0	0	0
136	1	1	-4.103641606770607	-19.92087345486554	45.147948554294786	0	0	0
137	1	1	-4.282060807064981	-20.67275981193591	44.51325690079857	0	0	0
138	1	1	-4.4604800073593545	-21.59836208596877	44.84706376003234	0	0	0
139	1	1	-4.638899207653728	-22.350248443039142	44.21237210653612	0	0	0
140	1	1	-4.817318407948102	-23.275850717072	44.5461789657699	0	0	0
141	1	1	-4.995737608242476	-24.027737074142372	43.91148731227368	0	0	0
142	1	1	-5.17415680853685	-24.95333934817523	44.24529417150745	0	0	0
143	1	1	-5.352576008831224	-25.705225705245603	43.610602518011234	0	0	0
144	1	1	-5.530995209125598	-26.63082797927846	43.94440937724501	0	0	0
145	1	1	-5.7094144094199715	-27.382714336348833	43.30971772374879	0	0	0
146	1	1	-5.887833609714345	-28.30831661038169	43.643524582982565	0	0	0
147	1	1	-6.066252810008719	-29.060202967452064	43.008832929486346	0	0	0
148	1	1	-6.244672010303093	-29.985805241484922	43.34263978872012	0	0	0
149	1	1	-6.423091210597467	-30.737691598555294	42.7079481352239	0	0	0
150	1	1	-6.601510410891841	-31.663293872588152	43.041754994457676	0	0	0
151	1	1	-6.779929611186215	-32.415180229658525	42.40706334096146	0	0	0
152	1	1	-6.9583488114805885	-33.340782503691386	42.74087020019523	0	0	0
153	1	1	-7.136768011774962	-34.09266886076176	42.10617854669901	0	0	0
154	1	1	-7.315187212069336	-35.018271134794624	42.43998540593279	0	0	0
155	1	1	-7.49360641236371	-35.770157491865	41.80529375243657	0	0	0
156	1	1	-7.672025612658084	-36.69575976589786	42.139100611670344	0	0	0
157	1	1	-7.850444812952458	-37.44764612296824	41.504408958174125	0	0	0
158	1	1	-8.028864013246832	-38.3732483970011	41.8382158174079	0	0	0
159	1	1	-8.207283213541206	-39.125134754071475	41.20352416391168	0	0	0
160	1	1	-8.385702413835581	-40.050737028104336	41.537331023145455	0	0	0
161	1	1	-8.564121614129956	-40.80262338517471	40.902639369649236	0	0	0
162	1	1	-8.74254081442433	-41.728225659207574	41.23644622888301	0	0	0
163	1	1	-8.920960014718705	-42.48011201627795	40.60175457538679	0	0	0
164	1	1	-9.09937921501308	-43.40571429031081	40.93556143462057	0	0	0
165	1	1	-9.277798415307455	-44.15760064738119	40.30086978112435	0	0	0
166	1	1	-9.45621761560183	-45.08320292141405	40.63467664035812	0	0	0
167	1	1	-9.634636815896204	-45.835089278484425	39.999984986861904	0	0	0
168	1	1	-9.813056016190579	-46.76069155251729	40.33379184609568	0	0	0
169	1	1	-9.991475216484954	-47.51257790958766	39.69910019259946	0	0	0
170	1	1	-0.7123854829659138	-0.13229148783954964	49.22914077669523	0	0	0
171	1	1	-1.4247709659318262	-0.11271835939635798	49.930656148089454	0	0	0
172	1	1	-2.1371564488977386	0.5045983375979074	50.26446300732322	0	0	0
173	1	1	-2.849541931863651	0.5241714660410991	50.965978378717445	0	0	0
174	1	1	-3.5619274148295634	1.1414881630353646	51.29978523795121	0	0	0
175	1	1	-4.274312897795475	1.1610612914785563	52.001300609345435	0	0	0
176	1	1	-4.986698380761387	1.7783779884728217	52.3351074685792	0	0	0
177	1	1	-5.699083863727299	1.7979511169160134	53.036622839973425	0	0	0
178	1	1	-6.411469346693211	2.415267813910279	53.37042969920719	0	0	0
179	1	1	-7.123854829659123	2.4348409423534703	54.071945070601416	0	0	0
180	1	1	-7.836240312625035	3.052157639347736	54.40575192983518	0	0	0
181	1	1	-8.548625795590947	3.0717307677909274	55.107267301229406	0	0	0
182	1	1	-9.26101127855686	3.689047464785193	55.441074160463174	0	0	0
183	1	1	-9.973396761522771	3.7086205932283844	56.142589531857396	0	0	0
184	1	1	-10.685782244488683	4.32593729022265	56.476396391091164	0	0	0
185	1	1	-11.398167727454595	4.3455104186658415	57.17791176248539	0	0	0
186	1	1	-12.110553210420507	4.962827115660107	57.511718621719154	0	0	0
187	1	1	-12.82293869338642	4.982400244103299	58.21323399311338	0	0	0
188	1	1	-13.535324176352331	5.599716941097564	58.547040852347145	0	0	0
189	1	1	-14.247709659318243	5.619290069540756	59.24855622374137	0	0	0
190	1	1	-14.960095142284155	6.236606766535021	59.582363082975135	0	0	0
191	1	1	-15.672480625250067	6.256179894978213	60.28387845436936	0	0	0
192	1	1	-16.38486610821598	6.873496591972478	60.617685313603126	0	0	0
193	1	1	-17.097251591181895	6.89306972041567	61.31920068499735	0	0	0
194	1	1	-17.80963707414781	7.5103864174099355	61.653007544231116	0	0	0
195	1	1	-18.522022557113722	7.529959545853127	62.35452291562534	0	0	0
196	1	1	-19.234408040079636	8.147276242847392	62.688329774859106	0	0	0
197	1	1	-19.94679352304555	8.166849371290583	63.38984514625333	0	0	0
198	1	1	-20.659179006011463	8.784166068284849	63.7236520054871	0	0	0
199	1	1	-21.371564488977377	8.80373919672804	64.42516737688132	0	0	0
200	1	1	-22.08394997194329	9.421055893722306	64.7589742361151	0	0	0
201	1	1	-22.796335454909205	9.440629022165497	65.46048960750932	0	0	0
202	1	1	-23.50872093787512	10.057945719159763	65.79429646674309	0	0	0
203	1	1	-24.221106420841032	10.077518847602954	66.49581183813731	0	0	0
204	1	1	-24.933491903806946	10.69483554459722	66.82961869737109	0	0	0
205	1	1	-25.64587738677286	10.714408673040412	67.53113406876531	0	0	0
206	1	1	-26.358262869738773	11.331725370034677	67.86494092799909	0	0	0
207	1	1	-27.070648352704687	11.351298498477869	68.56645629939331	0	0	0
208	1	1	-27.7830338356706	11.968615195472134	68.90026315862708	0	0	0
209	1	1	-28.495419318636515	11.988188323915326	69.6017785300213	0	0	0
210	1	1	-29.20780480160243	12.605505020909591	69.93558538925508	0	0	0
211	1	1	-29.920190284568342	12.625078149352783	70.6371007606493	0	0	0
212	1	1	-30.632575767534256	13.242394846347048	70.97090761988308	0	0	0
213	1	1	-31.34496125050017	13.26196797479024	71.6724229912773	0	0	0
214	1	1	-32.05734673346608	13.879284671784506	72.00622985051108	0	0	0
215	1	1	-32.769732216432	13.898857800227697	72.7077452219053	0	0	0
216	1	1	-33.48211769939791	14.516174497221963	73.04155208113907	0	0	0
217	1	1	-34.194503182363825	14.535747625665154	73.7430674525333	0	0	0
218	1	1	-34.90688866532974	15.15306432265942	74.07687431176707	0	0	0
219	1	1	-35.61927414829565	15.172637451102611	74.7783896831613	0	0	0
220	1	1	-36.331659631261566	15.789954148096877	75.11219654239507	0	0	0
221	1	1	-37.04404511422748	15.809527276540068	75.81371191378929	0	0	0
222	1	1	-37.75643059719339	16.426843973534332	76.14751877302307	0	0	0
223	1	1	-38.46881608015931	16.446417101977524	76.84903414441729	0	0	0
224	1	1	-39.18120156312522	17.06373379897179	77.18284100365106	0	0	0
225	1	1	-39.893587046091135	17.08330692741498	77.88435637504529	0	0	0
226	1	1	-39.48817337161302	16.887821838096094	78.77734312321132	0	0	0
227	1	1	-39.08275969713491	16.272033410601853	79.45294978770653	0	0	0
228	1	1	-38.6773460226568	16.549231731273647	80.32404154152061	0	0	0
229	1	1	-38.27193234817869	15.933443303779407	80.99964820601582	0	0	0
230	1	1	-37.866518673700575	16.2106416244512	81.8707399598299	0	0	0
231	1	1	-37.461104999222464	15.59485319695696	82.54634662432511	0	0	0
232	1	1	-37.05569132474435	15.872051517628753	83.4174383781392	0	0	0
233	1	1	-36.65027765026624	15.256263090134514	84.0930450426344	0	0	0
234	1	1	-36.24486397578813	15.533461410806307	84.96413679644849	0	0	0
235	1	1	-35.839450301310016	14.917672983312068	85.63974346094369	0	0	0
236	1	1	-35.434036626831904	15.194871303983861	86.51083521475778	0	0	0
237	1	1	-35.02862295235379	14.579082876489622	87.18644187925298	0	0	0
238	1	1	-34.62320927787568	14.856281197161415	88.05753363306707	0	0	0
239	1	1	-34.21779560339757	14.240492769667176	88.73314029756227	0	0	0
240	1	1	-33.81238192891946	14.51769109033897	89.60423205137636	0	0	0
241	1	1	-33.406968254441345	13.90190266284473	90.27983871587156	0	0	0
242	1	1	-33.00155457996323	14.179100983516523	91.15093046968565	0	0	0
243	1	1	-32.59614090548512	13.563312556022284	91.82653713418085	0	0	0
244	1	1	-32.19072723100701	13.840510876694077	92.69762888799494	0	0	0
245	1	1	-31.785313556528898	13.224722449199838	93.37323555249014	0	0	0
246	1	1	-31.379899882050786	13.501920769871631	94.24432730630423	0	0	0
247	1	1	-30.974486207572674	12.886132342377392	94.91993397079943	0	0	0
248	1	1	-30.569072533094563	13.163330663049186	95.79102572461352	0	0	0
249	1	1	-30.16365885861645	12.547542235554946	96.46663238910872	0	0	0
250	1	1	-29.75824518413834	12.82474055622674	97.33772414292281	0	0	0
251	1	1	-29.352831509660227	12.2089521287325	98.01333080741801	0	0	0
252	1	1	-28.947417835182115	12.486150449404294	98.8844225612321	0	0	0
253	1	1	-28.542004160704003	11.870362021910054	99.5600292257273	0	0	0
254	1	1	-28.13659048622589	12.147560342581848	100.43112097954139	0	0	0
255	1	1	-27.73117681174778	11.531771915087608	101.1067276440366	0	0	0
256	1	1	-27.325763137269668	11.808970235759402	101.97781939785068	0	0	0
257	1	1	-26.920349462791556	11.193181808265162	102.65342606234589	0	0	0
258	1	1	-26.514935788313444	11.470380128936956	103.52451781615997	0	0	0
259	1	1	-26.109522113835332	10.854591701442716	104.20012448065518	0	0	0
260	1	1	-25.70410843935722	11.13179002211451	105.07121623446926	0	0	0
261	1	1	-25.29869476487911	10.51600159462027	105.74682289896447	0	0	0
262	1	1	-24.893281090400997	10.793199915292064	106.61791465277855	0	0	0
263	1	1	-24.487867415922885	10.177411487797825	107.29352131727376	0	0	0
264	1	1	-24.082453741444773	10.454609808469618	108.16461307108784	0	0	0
265	1	1	-23.67704006696666	9.838821380975379	108.84021973558305	0	0	0
266	1	1	-23.27162639248855	10.116019701647172	109.71131148939713	0	0	0
267	1	1	-22.866212718010438	9.500231274152933	110.38691815389234	0	0	0
268	1	1	-22.460799043532326	9.777429594824726	111.25800990770642	0	0	0
269	1	1	-22.055385369054214	9.161641167330487	111.93361657220163	0	0	0
270	1	1	-21.649971694576102	9.43883948800228	112.80470832601571	0	0	0
271	1	1	-21.24455802009799	8.82305106050804	113.48031499051092	0	0	0
272	1	1	-20.83914434561988	9.100249381179834	114.351406744325	0	0	0
273	1	1	-20.433730671141767	8.484460953685595	115.02701340882021	0	0	0
274	1	1	-20.028316996663655	8.761659274357388	115.8981051626343	0	0	0
275	1	1	-19.622903322185543	8.145870846863149	116.5737118271295	0	0	0
276	1	1	-19.21748964770743	8.423069167534942	117.44480358094359	0	0	0
277	1	1	-18.81207597322932	7.807280740040703	118.12041024543879	0	0	0
278	1	1	-18.406662298751208	8.084479060712496	118.99150199925288	0	0	0
279	1	1	-18.001248624273096	7.468690633218257	119.66710866374808	0	0	0
280	1	1	-17.595834949794984	7.7458889538900495	120.53820041756217	0	0	0
281	1	1	-17.190421275316872	7.13010052639581	121.21380708205737	0	0	0
282	1	1	-40.58689256995027	16.39362616552245	77.6753877236601	0	0	0
283	1	1	-41.28019809380941	15.900829430914708	77.14957518201967	0	0	0
284	1	1	-41.97350361766855	15.199064044921773	77.31344340227179	0	0	0
285	1	1	-42.666809141527686	14.706267310314033	76.78763086063137	0	0	0
286	1	1	-43.360114665386824	14.004501924321097	76.95149908088348	0	0	0
287	1	1	-44.05342018924596	13.511705189713357	76.42568653924306	0	0	0
288	1	1	-44.7467257131051	12.809939803720422	76.58955475949517	0	0	0
289	1	1	-45.44003123696424	12.317143069112682	76.06374221785475	0	0	0
290	1	1	-46.133336760823376	11.615377683119746	76.22761043810686	0	0	0
291	1	1	-46.826642284682514	11.122580948512006	75.70179789646645	0	0	0
292	1	1	-47.51994780854165	10.42081556251907	75.86566611671856	0	0	0
293	1	1	-48.21325333240079	9.92801882791133	75.33985357507814	0	0	0
294	1	1	-48.90655885625993	9.226253441918395	75.50372179533025	0	0	0
295	1	1	-49.599864380119065	8.733456707310655	74.97790925368983	0	0	0
296	1	1	-50.2931699039782	8.03169132131772	75.14177747394194	0	0	0
297	1	1	-50.98647542783734	7.538894586709979	74.61596493230152	0	0	0
298	1	1	-51.67978095169648	6.837129200717044	74.77983315255364	0	0	0
299	1	1	-52.37308647555562	6.344332466109304	74.25402061091322	0	0	0
300	1	1	-53.066391999414755	5.642567080116368	74.41788883116533	0	0	0
301	1	1	-53.75969752327389	5.149770345508628	73.89207628952491	0	0	0
302	1	1	-54.45300304713303	4.448004959515693	74.05594450977702	0	0	0
303	1	1	-55.14630857099217	3.9552082249079525	73.5301319681366	0	0	0
304	1	1	-55.839614094851306	3.2534428389150176	73.69400018838871	0	0	0
305	1	1	-56.532919618710444	2.7606461043072774	73.1681876467483	0	0	0
306	1	1	-57.22622514256958	2.0588807183143425	73.3320558670004	0	0	0
307	1	1	-57.91953066642872	1.5660839837066023	72.80624332535999	0	0	0
308	1	1	-58.61283619028786	0.8643185977136674	72.9701115456121	0	0	0
309	1	1	-59.306141714146996	0.3715218631059272	72.44429900397168	0	0	0
310	1	1	-59.999447238006134	-0.3302435228870077	72.60816722422379	0	0	0
311	1	1	-60.69275276186527	-0.8230402574947479	72.08235468258337	0	0	0
312	1	1	-61.38605828572441	-1.5248056434876829	72.24622290283548	0	0	0
313	1	1	-62.07936380958355	-2.017602378095423	71.72041036119506	0	0	0
314	1	1	-62.772669333442686	-2.719367764088358	71.88427858144718	0	0	0
315	1	1	-63.46597485730182	-3.212164498696098	71.35846603980676	0	0	0
316	1	1	-64.15928038116095	-3.913929884689033	71.52233426005887	0	0	0
317	1	1	-64.85258590502009	-4.406726619296773	70.99652171841845	0	0	0
318	1	1	-65.54589142887923	-5.108492005289708	71.16038993867056	0	0	0
319	1	1	-66.23919695273837	-5.6012887398974485	70.63457739703014	0	0	0
320	1	1	-66.9325024765975	-6.303054125890384	70.79844561728225	0	0	0
321	1	1	-67.62580800045664	-6.795850860498124	70.27263307564183	0	0	0
322	1	1	-68.31911352431578	-7.497616246491059	70.43650129589395	0	0	0
323	1	1	-69.01241904817492	-7.9904129810988	69.91068875425353	0	0	0
324	1	1	-69.70572457203406	-8.692178367091735	70.07455697450564	0	0	0
325	1	1	-70.3990300958932	-9.184975101699475	69.54874443286522	0	0	0
326	1	1	-71.09233561975233	-9.88674048769241	69.71261265311733	0	0	0
327	1	1	-71.78564114361147	-10.37953722230015	69.18680011147691	0	0	0
328	1	1	-72.47894666747061	-11.081302608293086	69.35066833172903	0	0	0
329	1	1	-73.17225219132975	-11.574099342900826	68.8248557900886	0	0	0
330	1	1	-73.86555771518888	-12.275864728893762	68.98872401034072	0	0	0
331	1	1	-74.55886323904802	-12.768661463501502	68.4629114687003	0	0	0
332	1	1	-75.25216876290716	-13.470426849494437	68.62677968895241	0	0	0
333	1	1	-75.9454742867663	-13.963223584102177	68.10096714731199	0	0	0
334	1	1	-76.63877981062544	-14.664988970095113	68.2648353675641	0	0	0
335	1	1	-77.33208533448457	-15.157785704702853	67.73902282592368	0	0	0
336	1	1	-78.02539085834371	-15.859551090695788	67.9028910461758	0	0	0
337	1	1	-78.71869638220285	-16.35234782530353	67.37707850453538	0	0	0
338	1	1	-40.31909267860786	17.988073712219407	77.9028502067524	0	0	0
339	1	1	-40.74459831112458	18.76237781650685	78.3712497272263	0	0	0
340	1	1	-41.170103943641294	19.55517575250141	77.93488246289577	0	0	0
341	1	1	-41.59560957615801	20.32947985678885	78.40328198336967	0	0	0
342	1	1	-42.02111520867473	21.12227779278341	77.96691471903914	0	0	0
343	1	1	-42.44662084119145	21.896581897070853	78.43531423951303	0	0	0
344	1	1	-42.872126473708164	22.689379833065413	77.9989469751825	0	0	0
345	1	1	-43.29763210622488	23.463683937352855	78.4673464956564	0	0	0
346	1	1	-43.7231377387416	24.256481873347415	78.03097923132587	0	0	0
347	1	1	-44.148643371258316	25.030785977634856	78.49937875179977	0	0	0
348	1	1	-44.574149003775034	25.823583913629417	78.06301148746924	0	0	0
349	1	1	-44.99965463629175	26.59788801791686	78.53141100794313	0	0	0
350	1	1	-45.42516026880847	27.39068595391142	78.0950437436126	0	0	0
351	1	1	-45.850665901325186	28.16499005819886	78.5634432640865	0	0	0
352	1	1	-46.276171533841904	28.95778799419342	78.12707599975597	0	0	0
353	1	1	-46.70167716635862	29.732092098480862	78.59547552022987	0	0	0
354	1	1	-47.12718279887534	30.524890034475423	78.15910825589934	0	0	0
355	1	1	-47.552688431392056	31.299194138762864	78.62750777637324	0	0	0
356	1	1	-47.978194063908774	32.09199207475742	78.19114051204271	0	0	0
357	1	1	-48.40369969642549	32.86629617904486	78.6595400325166	0	0	0
358	1	1	-48.82920532894221	33.659094115039416	78.22317276818607	0	0	0
359	1	1	-49.254710961458926	34.433398219326854	78.69157228865997	0	0	0
360	1	1	-49.68021659397564	35.22619615532141	78.25520502432944	0	0	0
361	1	1	-50.10572222649236	36.00050025960885	78.72360454480334	0	0	0
362	1	1	-50.53122785900908	36.793298195603406	78.28723728047281	0	0	0
363	1	1	-50.956733491525796	37.567602299890844	78.7556368009467	0	0	0
364	1	1	-51.38223912404251	38.3604002358854	78.31926953661618	0	0	0
365	1	1	-51.80774475655923	39.13470434017284	78.78766905709007	0	0	0
366	1	1	-52.23325038907595	39.927502276167395	78.35130179275954	0	0	0
367	1	1	-52.658756021592666	40.70180638045483	78.81970131323344	0	0	0
368	1	1	-53.08426165410938	41.49460431644939	78.38333404890291	0	0	0
369	1	1	-53.5097672866261	42.26890842073683	78.8517335693768	0	0	0
370	1	1	-53.93527291914282	43.061706356731385	78.41536630504628	0	0	0
371	1	1	-54.360778551659536	43.83601046101882	78.88376582552017	0	0	0
372	1	1	-54.78628418417625	44.62880839701338	78.44739856118964	0	0	0
373	1	1	-55.21178981669297	45.40311250130082	78.91579808166354	0	0	0
374	1	1	-55.63729544920969	46.195910437295375	78.47943081733301	0	0	0
375	1	1	-56.062801081726406	46.97021454158281	78.9478303378069	0	0	0
376	1	1	-56.48830671424312	47.76301247757737	78.51146307347638	0	0	0
377	1	1	-56.91381234675984	48.53731658186481	78.97986259395027	0	0	0
378	1	1	-57.33931797927656	49.330114517859364	78.54349532961974	0	0	0
379	1	1	-57.764823611793275	50.1044186221468	79.01189485009364	0	0	0
380	1	1	-58.19032924430999	50.89721655814136	78.57552758576311	0	0	0
381	1	1	-58.61583487682671	51.6715206624288	79.043927106237	0	0	0
382	1	1	-59.04134050934343	52.464318598423354	78.60755984190648	0	0	0
383	1	1	-59.466846141860145	53.23862270271079	79.07595936238037	0	0	0
384	1	1	-59.89235177437686	54.03142063870535	78.63959209804985	0	0	0
385	1	1	-60.31785740689358	54.80572474299279	79.10799161852374	0	0	0
386	1	1	-60.7433630394103	55.598522678987344	78.67162435419321	0	0	0
387	1	1	-61.168868671927015	56.37282678327478	79.14002387466711	0	0	0
388	1	1	-61.59437430444373	57.16562471926934	78.70365661033658	0	0	0
389	1	1	-62.01987993696045	57.93992882355678	79.17205613081047	0	0	0
390	1	1	-62.44538556947717	58.73272675955133	78.73568886647995	0	0	0
391	1	1	-62.870891201993885	59.50703086383877	79.20408838695384	0	0	0
392	1	1	-63.2963968345106	60.29982879983333	78.76772112262331	0	0	0
393	1	1	-63.72190246702732	61.074132904120766	79.23612064309721	0	0	0
394	1	1	-64.69804895495349	60.894789606771475	79.35848900422572	0	0	0
395	1	1	-65.67419544287966	60.67828957470426	79.37479146490783	0	0	0
396	1	1	-66.65034193080584	60.58415790376556	79.57043722293923	0	0	0
397	1	1	-67.62648841873201	60.36765787169834	79.58673968362135	0	0	0
398	1	1	-68.60263490665818	60.27352620075964	79.78238544165275	0	0	0
399	1	1	-69.57878139458435	60.057026168692424	79.79868790233486	0	0	0
400	1	1	-70.55492788251053	59.96289449775372	79.99433366036627	0	0	0
401	1	1	-71.5310743704367	59.74639446568651	80.01063612104838	0	0	0
402	1	1	-72.50722085836287	59.652262794747806	80.20628187907978	0	0	0
403	1	1	-73.48336734628904	59.43576276268059	80.2225843397619	0	0	0
404	1	1	-74.45951383421522	59.34163109174189	80.4182300977933	0	0	0
405	1	1	-75.43566032214139	59.12513105967467	80.43453255847541	0	0	0
406	1	1	-76.41180681006756	59.03099938873597	80.63017831650681	0	0	0
407	1	1	-77.38795329799373	58.814499356668755	80.64648077718893	0	0	0
408	1	1	-78.3640997859199	58.720367685730054	80.84212653522033	0	0	0
409	1	1	-79.34024627384608	58.50386765366284	80.85842899590244	0	0	0
410	1	1	-80.31639276177225	58.409735982724136	81.05407475393385	0	0	0
411	1	1	-81.29253924969842	58.19323595065692	81.07037721461596	0	0	0
412	1	1	-82.2686857376246	58.09910427971822	81.26602297264736	0	0	0
413	1	1	-83.24483222555077	57.882604247651	81.28232543332948	0	0	0
414	1	1	-84.22097871347694	57.7884725767123	81.47797119136088	0	0	0
415	1	1	-85.19712520140311	57.571972544645085	81.49427365204299	0	0	0
416	1	1	-86.17327168932928	57.477840873706384	81.6899194100744	0	0	0
417	1	1	-87.14941817725546	57.26134084163917	81.70622187075651	0	0	0
418	1	1	-88.12556466518163	57.16720917070047	81.90186762878791	0	0	0
419	1	1	-89.1017111531078	56.95070913863325	81.91817008947002	0	0	0
420	1	1	-90.07785764103397	56.85657746769455	82.11381584750143	0	0	0
421	1	1	-91.05400412896014	56.64007743562733	82.13011830818354	0	0	0
422	1	1	-92.03015061688632	56.54594576468863	82.32576406621494	0	0	0
423	1	1	-93.00629710481249	56.329445732621416	82.34206652689706	0	0	0
424	1	1	-93.98244359273866	56.235314061682715	82.53771228492846	0	0	0
425	1	1	-94.95859008066483	56.0188140296155	82.55401474561057	0	0	0
426	1	1	-95.934736568591	55.9246823586768	82.74966050364198	0	0	0
427	1	1	-96.91088305651718	55.70818232660958	82.76596296432409	0	0	0
428	1	1	-97.88702954444335	55.61405065567088	82.96160872235549	0	0	0
429	1	1	-98.86317603236952	55.397550623603664	82.9779111830376	0	0	0
430	1	1	-99.8393225202957	55.30341895266496	83.17355694106901	0	0	0
431	1	1	-100.81546900822187	55.086918920597746	83.18985940175112	0	0	0
432	1	1	-101.79161549614804	54.992787249659045	83.38550515978253	0	0	0
433	1	1	-102.76776198407421	54.77628721759183	83.40180762046464	0	0	0
434	1	1	-103.74390847200038	54.68215554665313	83.59745337849604	0	0	0
435	1	1	-104.72005495992656	54.46565551458591	83.61375583917815	0	0	0
436	1	1	-105.69620144785273	54.37152384364721	83.80940159720956	0	0	0
437	1	1	-106.6723479357789	54.155023811579994	83.82570405789167	0	0	0
438	1	1	-107.64849442370507	54.06089214064129	84.02134981592307	0	0	0
439	1	1	-108.62464091163125	53.84439210857408	84.03765227660519	0	0	0
440	1	1	-109.60078739955742	53.750260437635376	84.23329803463659	0	0	0
441	1	1	-110.57693388748359	53.53376040556816	84.2496004953187	0	0	0
442	1	1	-111.55308037540976	53.43962873462946	84.4452462533501	0	0	0
443	1	1	-112.52922686333594	53.22312870256224	84.46154871403222	0	0	0
444	1	1	-113.50537335126211	53.12899703162354	84.65719447206362	0	0	0
445	1	1	-114.48151983918828	52.912496999556325	84.67349693274573	0	0	0