bb37nuc5bl6bn4d30tot100

97 atoms
96 bonds
110 angles

1 atom types
1 bond types
1 angle types

-1000 1000 xlo xhi
-1000 1000 ylo yhi
-1000 1000 zlo zhi

Masses

1 1

Atoms

1	1	1	0.0	0.0	0.0	0	0	0
2	1	1	0.0	0.0	1.0	0	0	0
3	1	1	0.0	-0.49999999999999994	1.8660254037844388	0	0	0
4	1	1	0.0	0.0	2.7320508075688776	0	0	0
5	1	1	0.0	-0.49999999999999994	3.5980762113533165	0	0	0
6	1	1	0.0	0.0	4.464101615137755	0	0	0
7	1	1	0.0	-0.49999999999999994	5.330127018922194	0	0	0
8	1	1	-0.852503947827335	-1.0152674629935676	5.418084170530124	0	0	0
9	1	1	-1.7050078956546701	-1.5054807514935207	5.2366235667703265	0	0	0
10	1	1	-2.5575118434820054	-1.9077368883855437	5.570430426004097	0	0	0
11	1	1	-3.4100157913093407	-2.3979501768854967	5.3889698222443	0	0	0
12	1	1	-4.262519739136676	-2.8002063137775197	5.72277668147807	0	0	0
13	1	1	-5.115023686964011	-3.2904196022774728	5.541316077718273	0	0	0
14	1	1	0.07788794053698449	0.1466565479419572	6.088921311021639	0	0	0
15	1	1	0.155775881073969	0.32728039993351943	7.069384718197367	0	0	0
16	1	1	0.2336638216109535	1.2666985440245266	7.403191577431138	0	0	0
17	1	1	0.311551762147938	1.4473223960160888	8.383654984606867	0	0	0
18	1	1	0.3894397026849225	2.386740540107096	8.717461843840638	0	0	0
19	1	1	0.467327643221907	2.5673643920986584	9.697925251016366	0	0	0
20	1	1	0.7746160072903507	-1.1320993737990446	5.350631235376643	0	0	0
21	1	1	1.5492320145807015	-1.689765597452478	5.0523387208113695	0	0	0
22	1	1	2.3238480218710524	-2.2269276046514612	5.38614558004514	0	0	0
23	1	1	3.098464029161403	-2.7845938283048945	5.087853065479866	0	0	0
24	1	1	3.8730800364517535	-3.321755835503878	5.421659924713636	0	0	0
25	1	1	4.647696043742104	-3.8794220591573114	5.123367410148362	0	0	0
26	1	1	4.315473287897567	-4.763142221724943	4.793721062116868	0	0	0
27	1	1	3.98325053205303	-5.363643158329278	4.066378869173012	0	0	0
28	1	1	3.651027776208493	-6.293790442965108	4.222756838796787	0	0	0
29	1	1	3.318805020363956	-6.894291379569443	3.4954146458529314	0	0	0
30	1	1	2.986582264519419	-7.824438664205273	3.6517926154767064	0	0	0
31	1	1	2.654359508674882	-8.424939600809608	2.9244504225328507	0	0	0
32	1	1	5.270752348707299	-4.02375294482303	5.892112775198498	0	0	0
33	1	1	5.893808653672495	-4.533119840885317	6.4857003475405985	0	0	0
34	1	1	6.51686495863769	-4.273741371897469	7.223618805548417	0	0	0
35	1	1	7.1399212636028855	-4.783108267959756	7.817206377890518	0	0	0
36	1	1	7.762977568568081	-4.523729798971908	8.555124835898336	0	0	0
37	1	1	8.386033873533277	-5.033096695034195	9.148712408240437	0	0	0
38	1	1	5.132578904138832	-3.4098294427794933	4.385552130869788	0	0	0
39	1	1	5.617461764535561	-2.6342426679274147	3.9813816639031403	0	0	0
40	1	1	6.1023446249322895	-2.596471172353911	3.107618580558675	0	0	0
41	1	1	6.587227485329018	-1.8208843975018323	2.7034481135920276	0	0	0
42	1	1	7.072110345725747	-1.7831129019283285	1.8296850302475622	0	0	0
43	1	1	7.556993206122476	-1.0075261270762499	1.425514563280915	0	0	0
44	1	1	7.821814572428019	-1.231467129601454	0.48758062566266647	0	0	0
45	1	1	8.086635938733561	-0.956438757928112	-0.4366644926489076	0	0	0
46	1	1	8.351457305039103	-1.619344323873018	-1.1369686084352777	0	0	0
47	1	1	8.616278671344645	-1.344315952199676	-2.0612137267468515	0	0	0
48	1	1	8.881100037650187	-2.007221518144582	-2.7615178425332214	0	0	0
49	1	1	9.145921403955729	-1.7321931464712397	-3.6857629608447953	0	0	0
50	1	1	8.375742063956128	-0.8083761118538384	1.9640213684681882	0	0	0
51	1	1	9.19449092178978	-0.9051605421008089	2.5299569494823704	0	0	0
52	1	1	10.013239779623433	-0.46343816716050634	2.896742515274141	0	0	0
53	1	1	10.831988637457085	-0.5602225974074768	3.462678096288323	0	0	0
54	1	1	11.650737495290738	-0.11850022246717429	3.8294636620800935	0	0	0
55	1	1	12.46948635312439	-0.21528465271414474	4.395399243094276	0	0	0
56	1	1	6.958994656159238	-0.20604658364359074	1.4201970731923412	0	0	0
57	1	1	6.360996106196	0.490713806626932	1.8163317634075937	0	0	0
58	1	1	5.7629975562327616	1.182156706808881	1.4109869101901875	0	0	0
59	1	1	5.1649990062695235	1.8789170970794036	1.80712160040544	0	0	0
60	1	1	4.567000456306285	2.5703599972613524	1.4017767471880338	0	0	0
61	1	1	3.9690019063430477	3.2671203875318753	1.7979114374032863	0	0	0
62	1	1	3.6302547848951305	2.9515362705492882	2.684284413536399	0	0	0
63	1	1	3.2915076634472133	2.2350459201449318	3.2941138696043986	0	0	0
64	1	1	2.952760541999296	2.404928545873687	4.219527442654986	0	0	0
65	1	1	2.614013420551379	1.6884381954693306	4.829356898722986	0	0	0
66	1	1	2.275266299103462	1.8583208211980862	5.754770471773572	0	0	0
67	1	1	1.9365191776555446	1.1418304707937295	6.364599927841572	0	0	0
68	1	1	3.19583803347644	3.4309624934788783	1.185234205891653	0	0	0
69	1	1	2.4226741606098328	3.879192535194341	0.7365612120557605	0	0	0
70	1	1	1.6495102877432253	3.7147453453981707	0.12404611227286488	0	0	0
71	1	1	0.8763464148766178	4.162975387113633	-0.3246268815630276	0	0	0
72	1	1	0.10318254201001031	3.9985281973174627	-0.9371419813459232	0	0	0
73	1	1	-0.6699813308565972	4.446758239032925	-1.3858149751818156	0	0	0
74	1	1	4.482064847288839	4.11661259111156	1.920913123104696	0	0	0
75	1	1	4.9951277882346306	4.790793576877683	2.452181809420268	0	0	0
76	1	1	5.508190729180422	5.587976248345217	2.1339582921561564	0	0	0
77	1	1	6.021253670126213	6.26215723411134	2.665226978471728	0	0	0
78	1	1	6.534316611072004	7.059339905578874	2.3470034612076165	0	0	0
79	1	1	7.047379552017795	7.733520891344997	2.8782721475231883	0	0	0
80	1	1	7.900969647077521	7.951796774065553	2.4052609545916788	0	0	0
81	1	1	8.754559742137248	8.377334830000782	2.104759186598887	0	0	0
82	1	1	9.608149837196974	8.329861693004501	1.5859815358855398	0	0	0
83	1	1	10.4617399322567	8.75539974893973	1.2854797678927479	0	0	0
84	1	1	11.315330027316426	8.70792661194345	0.7667021171794005	0	0	0
85	1	1	12.168920122376152	9.133464667878679	0.4662003491866086	0	0	0
86	1	1	7.254078727321416	7.359051225642275	3.7821791783605936	0	0	0
87	1	1	7.460777902625037	6.582797466778348	4.37775079687379	0	0	0
88	1	1	7.667477077928658	6.710450738751827	5.347792081089708	0	0	0
89	1	1	7.874176253232279	5.9341969798879	5.943363699602904	0	0	0
90	1	1	8.0808754285359	6.061850251861379	6.913404983818823	0	0	0
91	1	1	8.287574603839522	5.285596492997452	7.508976602332019	0	0	0
92	1	1	6.5008820683735165	8.564853386568316	2.97939970438205	0	0	0
93	1	1	5.954384584729238	9.234244667993785	3.4826449852561385	0	0	0
94	1	1	5.407887101084959	10.004763506278115	3.1545577709069086	0	0	0
95	1	1	4.86138961744068	10.674154787703584	3.6578030517809976	0	0	0
96	1	1	4.314892133796401	11.444673625987914	3.3297158374317677	0	0	0
97	1	1	3.768394650152122	12.114064907413383	3.8329611183058567	0	0	0

Bonds

1	1	1	2
2	1	2	3
3	1	3	4
4	1	4	5
5	1	5	6
6	1	6	7
7	1	7	8
8	1	7	14
9	1	7	20
10	1	8	9
11	1	9	10
12	1	10	11
13	1	11	12
14	1	12	13
15	1	14	15
16	1	15	16
17	1	16	17
18	1	17	18
19	1	18	19
20	1	20	21
21	1	21	22
22	1	22	23
23	1	23	24
24	1	24	25
25	1	25	26
26	1	25	32
27	1	25	38
28	1	26	27
29	1	27	28
30	1	28	29
31	1	29	30
32	1	30	31
33	1	32	33
34	1	33	34
35	1	34	35
36	1	35	36
37	1	36	37
38	1	38	39
39	1	39	40
40	1	40	41
41	1	41	42
42	1	42	43
43	1	43	44
44	1	43	50
45	1	43	56
46	1	44	45
47	1	45	46
48	1	46	47
49	1	47	48
50	1	48	49
51	1	50	51
52	1	51	52
53	1	52	53
54	1	53	54
55	1	54	55
56	1	56	57
57	1	57	58
58	1	58	59
59	1	59	60
60	1	60	61
61	1	61	62
62	1	61	68
63	1	61	74
64	1	62	63
65	1	63	64
66	1	64	65
67	1	65	66
68	1	66	67
69	1	68	69
70	1	69	70
71	1	70	71
72	1	71	72
73	1	72	73
74	1	74	75
75	1	75	76
76	1	76	77
77	1	77	78
78	1	78	79
79	1	79	80
80	1	79	86
81	1	79	92
82	1	80	81
83	1	81	82
84	1	82	83
85	1	83	84
86	1	84	85
87	1	86	87
88	1	87	88
89	1	88	89
90	1	89	90
91	1	90	91
92	1	92	93
93	1	93	94
94	1	94	95
95	1	95	96
96	1	96	97

Angles

1	1	1	2	3
2	1	2	3	4
3	1	3	4	5
4	1	4	5	6
5	1	5	6	7
6	1	6	7	8
7	1	6	7	14
8	1	6	7	20
9	1	7	8	9
10	1	7	14	15
11	1	7	20	21
12	1	8	7	14
13	1	8	7	20
14	1	8	9	10
15	1	9	10	11
16	1	10	11	12
17	1	11	12	13
18	1	14	7	20
19	1	14	15	16
20	1	15	16	17
21	1	16	17	18
22	1	17	18	19
23	1	20	21	22
24	1	21	22	23
25	1	22	23	24
26	1	23	24	25
27	1	24	25	26
28	1	24	25	32
29	1	24	25	38
30	1	25	26	27
31	1	25	32	33
32	1	25	38	39
33	1	26	25	32
34	1	26	25	38
35	1	26	27	28
36	1	27	28	29
37	1	28	29	30
38	1	29	30	31
39	1	32	25	38
40	1	32	33	34
41	1	33	34	35
42	1	34	35	36
43	1	35	36	37
44	1	38	39	40
45	1	39	40	41
46	1	40	41	42
47	1	41	42	43
48	1	42	43	44
49	1	42	43	50
50	1	42	43	56
51	1	43	44	45
52	1	43	50	51
53	1	43	56	57
54	1	44	43	50
55	1	44	43	56
56	1	44	45	46
57	1	45	46	47
58	1	46	47	48
59	1	47	48	49
60	1	50	43	56
61	1	50	51	52
62	1	51	52	53
63	1	52	53	54
64	1	53	54	55
65	1	56	57	58
66	1	57	58	59
67	1	58	59	60
68	1	59	60	61
69	1	60	61	62
70	1	60	61	68
71	1	60	61	74
72	1	61	62	63
73	1	61	68	69
74	1	61	74	75
75	1	62	61	68
76	1	62	61	74
77	1	62	63	64
78	1	63	64	65
79	1	64	65	66
80	1	65	66	67
81	1	68	61	74
82	1	68	69	70
83	1	69	70	71
84	1	70	71	72
85	1	71	72	73
86	1	74	75	76
87	1	75	76	77
88	1	76	77	78
89	1	77	78	79
90	1	78	79	80
91	1	78	79	86
92	1	78	79	92
93	1	79	80	81
94	1	79	86	87
95	1	79	92	93
96	1	80	79	86
97	1	80	79	92
98	1	80	81	82
99	1	81	82	83
100	1	82	83	84
101	1	83	84	85
102	1	86	79	92
103	1	86	87	88
104	1	87	88	89
105	1	88	89	90
106	1	89	90	91
107	1	92	93	94
108	1	93	94	95
109	1	94	95	96
110	1	95	96	97
