bb200nuc1bl100bn3d30tot300

301 atoms
300 bonds
300 angles

1 atom types
1 bond types
1 angle types

-1000 1000 xlo xhi
-1000 1000 ylo yhi
-1000 1000 zlo zhi

Masses

1 1

Atoms

1	1	1	0.0	0.0	0.0	0	0	0
2	1	1	0.0	0.0	1.0	0	0	0
3	1	1	0.0	-0.49999999999999994	1.8660254037844388	0	0	0
4	1	1	0.0	0.0	2.7320508075688776	0	0	0
5	1	1	0.0	-0.49999999999999994	3.5980762113533165	0	0	0
6	1	1	0.0	0.0	4.464101615137755	0	0	0
7	1	1	0.0	-0.49999999999999994	5.330127018922194	0	0	0
8	1	1	0.0	0.0	6.196152422706632	0	0	0
9	1	1	0.0	-0.49999999999999994	7.06217782649107	0	0	0
10	1	1	0.0	0.0	7.928203230275509	0	0	0
11	1	1	0.0	-0.49999999999999994	8.794228634059948	0	0	0
12	1	1	0.0	0.0	9.660254037844387	0	0	0
13	1	1	0.0	-0.49999999999999994	10.526279441628827	0	0	0
14	1	1	0.0	0.0	11.392304845413266	0	0	0
15	1	1	0.0	-0.49999999999999994	12.258330249197705	0	0	0
16	1	1	0.0	0.0	13.124355652982144	0	0	0
17	1	1	0.0	-0.49999999999999994	13.990381056766584	0	0	0
18	1	1	0.0	0.0	14.856406460551023	0	0	0
19	1	1	0.0	-0.49999999999999994	15.722431864335462	0	0	0
20	1	1	0.0	0.0	16.5884572681199	0	0	0
21	1	1	0.0	-0.49999999999999994	17.454482671904337	0	0	0
22	1	1	0.0	0.0	18.320508075688775	0	0	0
23	1	1	0.0	-0.49999999999999994	19.186533479473212	0	0	0
24	1	1	0.0	0.0	20.05255888325765	0	0	0
25	1	1	0.0	-0.49999999999999994	20.918584287042087	0	0	0
26	1	1	0.0	0.0	21.784609690826525	0	0	0
27	1	1	0.0	-0.49999999999999994	22.650635094610962	0	0	0
28	1	1	0.0	0.0	23.5166604983954	0	0	0
29	1	1	0.0	-0.49999999999999994	24.382685902179837	0	0	0
30	1	1	0.0	0.0	25.248711305964274	0	0	0
31	1	1	0.0	-0.49999999999999994	26.114736709748712	0	0	0
32	1	1	0.0	0.0	26.98076211353315	0	0	0
33	1	1	0.0	-0.49999999999999994	27.846787517317587	0	0	0
34	1	1	0.0	0.0	28.712812921102024	0	0	0
35	1	1	0.0	-0.49999999999999994	29.578838324886462	0	0	0
36	1	1	0.0	0.0	30.4448637286709	0	0	0
37	1	1	0.0	-0.49999999999999994	31.310889132455337	0	0	0
38	1	1	0.0	0.0	32.17691453623978	0	0	0
39	1	1	0.0	-0.49999999999999994	33.04293994002422	0	0	0
40	1	1	0.0	0.0	33.90896534380866	0	0	0
41	1	1	0.0	-0.49999999999999994	34.7749907475931	0	0	0
42	1	1	0.0	0.0	35.64101615137754	0	0	0
43	1	1	0.0	-0.49999999999999994	36.50704155516198	0	0	0
44	1	1	0.0	0.0	37.373066958946424	0	0	0
45	1	1	0.0	-0.49999999999999994	38.239092362730865	0	0	0
46	1	1	0.0	0.0	39.105117766515306	0	0	0
47	1	1	0.0	-0.49999999999999994	39.97114317029975	0	0	0
48	1	1	0.0	0.0	40.83716857408419	0	0	0
49	1	1	0.0	-0.49999999999999994	41.70319397786863	0	0	0
50	1	1	0.0	0.0	42.56921938165307	0	0	0
51	1	1	0.0	-0.49999999999999994	43.43524478543751	0	0	0
52	1	1	0.0	0.0	44.30127018922195	0	0	0
53	1	1	0.0	-0.49999999999999994	45.16729559300639	0	0	0
54	1	1	0.0	0.0	46.033320996790835	0	0	0
55	1	1	0.0	-0.49999999999999994	46.899346400575276	0	0	0
56	1	1	0.0	0.0	47.76537180435972	0	0	0
57	1	1	0.0	-0.49999999999999994	48.63139720814416	0	0	0
58	1	1	0.0	0.0	49.4974226119286	0	0	0
59	1	1	0.0	-0.49999999999999994	50.36344801571304	0	0	0
60	1	1	0.0	0.0	51.22947341949748	0	0	0
61	1	1	0.0	-0.49999999999999994	52.09549882328192	0	0	0
62	1	1	0.0	0.0	52.96152422706636	0	0	0
63	1	1	0.0	-0.49999999999999994	53.827549630850804	0	0	0
64	1	1	0.0	0.0	54.693575034635245	0	0	0
65	1	1	0.0	-0.49999999999999994	55.559600438419686	0	0	0
66	1	1	0.0	0.0	56.42562584220413	0	0	0
67	1	1	0.0	-0.49999999999999994	57.29165124598857	0	0	0
68	1	1	0.0	0.0	58.15767664977301	0	0	0
69	1	1	0.0	-0.49999999999999994	59.02370205355745	0	0	0
70	1	1	0.0	0.0	59.88972745734189	0	0	0
71	1	1	0.0	-0.49999999999999994	60.75575286112633	0	0	0
72	1	1	0.0	0.0	61.62177826491077	0	0	0
73	1	1	0.0	-0.49999999999999994	62.487803668695214	0	0	0
74	1	1	0.0	0.0	63.353829072479655	0	0	0
75	1	1	0.0	-0.49999999999999994	64.21985447626409	0	0	0
76	1	1	0.0	0.0	65.08587988004852	0	0	0
77	1	1	0.0	-0.49999999999999994	65.95190528383296	0	0	0
78	1	1	0.0	0.0	66.81793068761739	0	0	0
79	1	1	0.0	-0.49999999999999994	67.68395609140183	0	0	0
80	1	1	0.0	0.0	68.54998149518626	0	0	0
81	1	1	0.0	-0.49999999999999994	69.41600689897069	0	0	0
82	1	1	0.0	0.0	70.28203230275513	0	0	0
83	1	1	0.0	-0.49999999999999994	71.14805770653956	0	0	0
84	1	1	0.0	0.0	72.014083110324	0	0	0
85	1	1	0.0	-0.49999999999999994	72.88010851410843	0	0	0
86	1	1	0.0	0.0	73.74613391789286	0	0	0
87	1	1	0.0	-0.49999999999999994	74.6121593216773	0	0	0
88	1	1	0.0	0.0	75.47818472546173	0	0	0
89	1	1	0.0	-0.49999999999999994	76.34421012924616	0	0	0
90	1	1	0.0	0.0	77.2102355330306	0	0	0
91	1	1	0.0	-0.49999999999999994	78.07626093681503	0	0	0
92	1	1	0.0	0.0	78.94228634059947	0	0	0
93	1	1	0.0	-0.49999999999999994	79.8083117443839	0	0	0
94	1	1	0.0	0.0	80.67433714816833	0	0	0
95	1	1	0.0	-0.49999999999999994	81.54036255195277	0	0	0
96	1	1	0.0	0.0	82.4063879557372	0	0	0
97	1	1	0.0	-0.49999999999999994	83.27241335952164	0	0	0
98	1	1	0.0	0.0	84.13843876330607	0	0	0
99	1	1	0.0	-0.49999999999999994	85.0044641670905	0	0	0
100	1	1	0.0	0.0	85.87048957087494	0	0	0
101	1	1	0.0	-0.49999999999999994	86.73651497465937	0	0	0
102	1	1	-0.4972167518553852	-0.1359302757375348	87.52406099715573	0	0	0
103	1	1	-0.9944335037107724	-0.21440965702562054	88.3881307214182	0	0	0
104	1	1	-1.4916502555661597	0.49465698418264903	88.8881307214182	0	0	0
105	1	1	-1.9888670074215469	0.4161776028945633	89.75220044568066	0	0	0
106	1	1	-2.486083759276934	1.125244244102833	90.25220044568066	0	0	0
107	1	1	-2.983300511132321	1.0467648628147472	91.11627016994312	0	0	0
108	1	1	-3.4805172629877084	1.7558315040230168	91.61627016994312	0	0	0
109	1	1	-3.9777340148430955	1.677352122734931	92.48033989420558	0	0	0
110	1	1	-4.474950766698483	2.3864187639432006	92.98033989420558	0	0	0
111	1	1	-4.972167518553871	2.307939382655115	93.84440961846805	0	0	0
112	1	1	-5.469384270409258	3.0170060238633845	94.34440961846805	0	0	0
113	1	1	-5.966601022264646	2.9385266425752987	95.20847934273051	0	0	0
114	1	1	-6.4638177741200336	3.6475932837835683	95.70847934273051	0	0	0
115	1	1	-6.961034525975421	3.5691139024954825	96.57254906699298	0	0	0
116	1	1	-7.458251277830809	4.278180543703752	97.07254906699298	0	0	0
117	1	1	-7.955468029686196	4.199701162415667	97.93661879125544	0	0	0
118	1	1	-8.452684781541583	4.908767803623936	98.43661879125544	0	0	0
119	1	1	-8.94990153339697	4.830288422335851	99.3006885155179	0	0	0
120	1	1	-9.447118285252357	5.539355063544121	99.8006885155179	0	0	0
121	1	1	-9.944335037107743	5.460875682256035	100.66475823978037	0	0	0
122	1	1	-10.44155178896313	6.169942323464305	101.16475823978037	0	0	0
123	1	1	-10.938768540818517	6.09146294217622	102.02882796404283	0	0	0
124	1	1	-11.435985292673903	6.800529583384489	102.52882796404283	0	0	0
125	1	1	-11.93320204452929	6.722050202096404	103.3928976883053	0	0	0
126	1	1	-12.430418796384677	7.4311168433046735	103.8928976883053	0	0	0
127	1	1	-12.927635548240064	7.352637462016588	104.75696741256776	0	0	0
128	1	1	-13.42485230009545	8.061704103224859	105.25696741256776	0	0	0
129	1	1	-13.922069051950837	7.983224721936773	106.12103713683022	0	0	0
130	1	1	-14.419285803806224	8.692291363145042	106.62103713683022	0	0	0
131	1	1	-14.91650255566161	8.613811981856957	107.48510686109269	0	0	0
132	1	1	-15.413719307516997	9.322878623065225	107.98510686109269	0	0	0
133	1	1	-15.910936059372384	9.24439924177714	108.84917658535515	0	0	0
134	1	1	-16.408152811227772	9.953465882985409	109.34917658535515	0	0	0
135	1	1	-16.90536956308316	9.874986501697324	110.21324630961762	0	0	0
136	1	1	-17.402586314938546	10.584053142905592	110.71324630961762	0	0	0
137	1	1	-17.899803066793933	10.505573761617507	111.57731603388008	0	0	0
138	1	1	-18.39701981864932	11.214640402825776	112.07731603388008	0	0	0
139	1	1	-18.894236570504706	11.13616102153769	112.94138575814254	0	0	0
140	1	1	-19.391453322360093	11.845227662745959	113.44138575814254	0	0	0
141	1	1	-19.88867007421548	11.766748281457874	114.30545548240501	0	0	0
142	1	1	-20.385886826070866	12.475814922666142	114.80545548240501	0	0	0
143	1	1	-20.883103577926253	12.397335541378057	115.66952520666747	0	0	0
144	1	1	-21.38032032978164	13.106402182586326	116.16952520666747	0	0	0
145	1	1	-21.877537081637026	13.02792280129824	117.03359493092994	0	0	0
146	1	1	-22.374753833492413	13.736989442506509	117.53359493092994	0	0	0
147	1	1	-22.8719705853478	13.658510061218424	118.3976646551924	0	0	0
148	1	1	-23.369187337203186	14.367576702426692	118.8976646551924	0	0	0
149	1	1	-23.866404089058573	14.289097321138607	119.76173437945486	0	0	0
150	1	1	-24.36362084091396	14.998163962346876	120.26173437945486	0	0	0
151	1	1	-24.860837592769347	14.91968458105879	121.12580410371733	0	0	0
152	1	1	-25.358054344624733	15.62875122226706	121.62580410371733	0	0	0
153	1	1	-25.85527109648012	15.550271840978974	122.48987382797979	0	0	0
154	1	1	-26.352487848335507	16.259338482187243	122.98987382797979	0	0	0
155	1	1	-26.849704600190893	16.180859100899156	123.85394355224226	0	0	0
156	1	1	-27.34692135204628	16.889925742107426	124.35394355224226	0	0	0
157	1	1	-27.844138103901667	16.81144636081934	125.21801327650472	0	0	0
158	1	1	-28.341354855757054	17.52051300202761	125.71801327650472	0	0	0
159	1	1	-28.83857160761244	17.442033620739522	126.58208300076718	0	0	0
160	1	1	-29.335788359467827	18.151100261947793	127.08208300076718	0	0	0
161	1	1	-29.833005111323214	18.072620880659706	127.94615272502965	0	0	0
162	1	1	-30.3302218631786	18.781687521867976	128.44615272502966	0	0	0
163	1	1	-30.827438615033987	18.70320814057989	129.31022244929213	0	0	0
164	1	1	-31.324655366889374	19.41227478178816	129.81022244929213	0	0	0
165	1	1	-31.82187211874476	19.333795400500073	130.6742921735546	0	0	0
166	1	1	-32.31908887060015	20.042862041708343	131.1742921735546	0	0	0
167	1	1	-32.81630562245554	19.964382660420256	132.03836189781705	0	0	0
168	1	1	-33.31352237431093	20.673449301628526	132.53836189781705	0	0	0
169	1	1	-33.81073912616632	20.59496992034044	133.40243162207952	0	0	0
170	1	1	-34.30795587802171	21.30403656154871	133.90243162207952	0	0	0
171	1	1	-34.8051726298771	21.225557180260623	134.76650134634198	0	0	0
172	1	1	-35.30238938173249	21.934623821468893	135.26650134634198	0	0	0
173	1	1	-35.79960613358788	21.856144440180806	136.13057107060445	0	0	0
174	1	1	-36.29682288544327	22.565211081389076	136.63057107060445	0	0	0
175	1	1	-36.79403963729866	22.48673170010099	137.4946407948669	0	0	0
176	1	1	-37.29125638915405	23.19579834130926	137.9946407948669	0	0	0
177	1	1	-37.78847314100944	23.117318960021173	138.85871051912937	0	0	0
178	1	1	-38.28568989286483	23.826385601229443	139.35871051912937	0	0	0
179	1	1	-38.78290664472022	23.747906219941356	140.22278024339184	0	0	0
180	1	1	-39.28012339657561	24.456972861149627	140.72278024339184	0	0	0
181	1	1	-39.777340148431	24.37849347986154	141.5868499676543	0	0	0
182	1	1	-40.27455690028639	25.08756012106981	142.0868499676543	0	0	0
183	1	1	-40.77177365214178	25.009080739781723	142.95091969191677	0	0	0
184	1	1	-41.26899040399717	25.718147380989993	143.45091969191677	0	0	0
185	1	1	-41.76620715585256	25.639667999701906	144.31498941617923	0	0	0
186	1	1	-42.26342390770795	26.348734640910177	144.81498941617923	0	0	0
187	1	1	-42.76064065956334	26.27025525962209	145.6790591404417	0	0	0
188	1	1	-43.25785741141873	26.97932190083036	146.1790591404417	0	0	0
189	1	1	-43.755074163274124	26.900842519542273	147.04312886470416	0	0	0
190	1	1	-44.252290915129514	27.609909160750544	147.54312886470416	0	0	0
191	1	1	-44.749507666984904	27.531429779462457	148.40719858896662	0	0	0
192	1	1	-45.246724418840294	28.240496420670727	148.90719858896662	0	0	0
193	1	1	-45.743941170695685	28.16201703938264	149.7712683132291	0	0	0
194	1	1	-46.241157922551075	28.87108368059091	150.2712683132291	0	0	0
195	1	1	-46.738374674406465	28.792604299302823	151.13533803749155	0	0	0
196	1	1	-47.235591426261855	29.501670940511094	151.63533803749155	0	0	0
197	1	1	-47.732808178117246	29.423191559223007	152.49940776175401	0	0	0
198	1	1	-48.230024929972636	30.132258200431277	152.99940776175401	0	0	0
199	1	1	-48.727241681828026	30.05377881914319	153.86347748601648	0	0	0
200	1	1	-49.22445843368342	30.76284546035146	154.36347748601648	0	0	0
201	1	1	-49.72167518553881	30.684366079063373	155.22754721027894	0	0	0
202	1	1	0.49721675185537456	-1.3640697242624715	86.81499435594745	0	0	0
203	1	1	0.994433503710751	-2.1516157467588295	86.45092463168497	0	0	0
204	1	1	1.4916502555661275	-2.860682387967109	86.95092463168497	0	0	0
205	1	1	1.988867007421504	-3.6482284104634664	86.58685490742249	0	0	0
206	1	1	2.4860837592768803	-4.357295051671746	87.08685490742249	0	0	0
207	1	1	2.983300511132257	-5.144841074168103	86.72278518316001	0	0	0
208	1	1	3.4805172629876333	-5.8539077153763825	87.22278518316001	0	0	0
209	1	1	3.97773401484301	-6.64145373787274	86.85871545889754	0	0	0
210	1	1	4.474950766698386	-7.350520379081019	87.35871545889754	0	0	0
211	1	1	4.972167518553762	-8.138066401577378	86.99464573463506	0	0	0
212	1	1	5.469384270409138	-8.847133042785657	87.49464573463506	0	0	0
213	1	1	5.9666010222645145	-9.634679065282015	87.13057601037258	0	0	0
214	1	1	6.463817774119891	-10.343745706490294	87.63057601037258	0	0	0
215	1	1	6.961034525975267	-11.131291728986652	87.2665062861101	0	0	0
216	1	1	7.458251277830643	-11.84035837019493	87.7665062861101	0	0	0
217	1	1	7.955468029686019	-12.627904392691288	87.40243656184762	0	0	0
218	1	1	8.452684781541395	-13.336971033899568	87.90243656184762	0	0	0
219	1	1	8.94990153339677	-14.124517056395925	87.53836683758514	0	0	0
220	1	1	9.447118285252147	-14.833583697604205	88.03836683758514	0	0	0
221	1	1	9.944335037107523	-15.621129720100562	87.67429711332267	0	0	0
222	1	1	10.441551788962899	-16.33019636130884	88.17429711332267	0	0	0
223	1	1	10.938768540818275	-17.117742383805197	87.81022738906019	0	0	0
224	1	1	11.435985292673651	-17.826809025013475	88.31022738906019	0	0	0
225	1	1	11.933202044529027	-18.614355047509832	87.94615766479771	0	0	0
226	1	1	12.430418796384403	-19.32342168871811	88.44615766479771	0	0	0
227	1	1	12.92763554823978	-20.110967711214467	88.08208794053523	0	0	0
228	1	1	13.424852300095155	-20.820034352422745	88.58208794053523	0	0	0
229	1	1	13.922069051950531	-21.607580374919102	88.21801821627275	0	0	0
230	1	1	14.419285803805908	-22.31664701612738	88.71801821627275	0	0	0
231	1	1	14.916502555661284	-23.104193038623738	88.35394849201028	0	0	0
232	1	1	15.41371930751666	-23.813259679832015	88.85394849201028	0	0	0
233	1	1	15.910936059372036	-24.600805702328373	88.4898787677478	0	0	0
234	1	1	16.408152811227414	-25.30987234353665	88.9898787677478	0	0	0
235	1	1	16.90536956308279	-26.097418366033008	88.62580904348532	0	0	0
236	1	1	17.402586314938166	-26.806485007241285	89.12580904348532	0	0	0
237	1	1	17.89980306679354	-27.594031029737643	88.76173931922284	0	0	0
238	1	1	18.397019818648918	-28.30309767094592	89.26173931922284	0	0	0
239	1	1	18.894236570504294	-29.090643693442278	88.89766959496036	0	0	0
240	1	1	19.39145332235967	-29.799710334650555	89.39766959496036	0	0	0
241	1	1	19.888670074215046	-30.587256357146913	89.03359987069788	0	0	0
242	1	1	20.385886826070422	-31.29632299835519	89.53359987069788	0	0	0
243	1	1	20.883103577925798	-32.08386902085155	89.1695301464354	0	0	0
244	1	1	21.380320329781174	-32.79293566205983	89.6695301464354	0	0	0
245	1	1	21.87753708163655	-33.58048168455619	89.30546042217293	0	0	0
246	1	1	22.374753833491926	-34.28954832576447	89.80546042217293	0	0	0
247	1	1	22.871970585347302	-35.07709434826083	89.44139069791045	0	0	0
248	1	1	23.36918733720268	-35.78616098946911	89.94139069791045	0	0	0
249	1	1	23.866404089058054	-36.57370701196547	89.57732097364797	0	0	0
250	1	1	24.36362084091343	-37.28277365317375	90.07732097364797	0	0	0
251	1	1	24.860837592768807	-38.070319675670106	89.7132512493855	0	0	0
252	1	1	25.358054344624183	-38.77938631687839	90.2132512493855	0	0	0
253	1	1	25.85527109647956	-39.566932339374745	89.84918152512302	0	0	0
254	1	1	26.352487848334935	-40.275998980583026	90.34918152512302	0	0	0
255	1	1	26.84970460019031	-41.06354500307938	89.98511180086054	0	0	0
256	1	1	27.346921352045687	-41.772611644287664	90.48511180086054	0	0	0
257	1	1	27.844138103901063	-42.56015766678402	90.12104207659806	0	0	0
258	1	1	28.34135485575644	-43.2692243079923	90.62104207659806	0	0	0
259	1	1	28.838571607611815	-44.05677033048866	90.25697235233558	0	0	0
260	1	1	29.33578835946719	-44.76583697169694	90.75697235233558	0	0	0
261	1	1	29.833005111322567	-45.5533829941933	90.3929026280731	0	0	0
262	1	1	30.330221863177943	-46.26244963540158	90.8929026280731	0	0	0
263	1	1	30.82743861503332	-47.04999565789794	90.52883290381062	0	0	0
264	1	1	31.324655366888695	-47.75906229910622	91.02883290381062	0	0	0
265	1	1	31.82187211874407	-48.54660832160258	90.66476317954815	0	0	0
266	1	1	32.31908887059945	-49.25567496281086	91.16476317954815	0	0	0
267	1	1	32.81630562245483	-50.043220985307215	90.80069345528567	0	0	0
268	1	1	33.3135223743102	-50.752287626515496	91.30069345528567	0	0	0
269	1	1	33.81073912616558	-51.539833649011854	90.93662373102319	0	0	0
270	1	1	34.307955878020955	-52.248900290220135	91.43662373102319	0	0	0
271	1	1	34.80517262987633	-53.03644631271649	91.07255400676071	0	0	0
272	1	1	35.30238938173171	-53.745512953924774	91.57255400676071	0	0	0
273	1	1	35.79960613358708	-54.53305897642113	91.20848428249823	0	0	0
274	1	1	36.29682288544246	-55.24212561762941	91.70848428249823	0	0	0
275	1	1	36.794039637297836	-56.02967164012577	91.34441455823575	0	0	0
276	1	1	37.29125638915321	-56.73873828133405	91.84441455823575	0	0	0
277	1	1	37.78847314100859	-57.52628430383041	91.48034483397328	0	0	0
278	1	1	38.285689892863964	-58.23535094503869	91.98034483397328	0	0	0
279	1	1	38.78290664471934	-59.02289696753505	91.6162751097108	0	0	0
280	1	1	39.280123396574716	-59.73196360874333	92.1162751097108	0	0	0
281	1	1	39.77734014843009	-60.519509631239686	91.75220538544832	0	0	0
282	1	1	40.27455690028547	-61.22857627244797	92.25220538544832	0	0	0
283	1	1	40.771773652140844	-62.016122294944324	91.88813566118584	0	0	0
284	1	1	41.26899040399622	-62.725188936152605	92.38813566118584	0	0	0
285	1	1	41.766207155851596	-63.51273495864896	92.02406593692336	0	0	0
286	1	1	42.26342390770697	-64.22180159985724	92.52406593692336	0	0	0
287	1	1	42.76064065956235	-65.0093476223536	92.15999621266089	0	0	0
288	1	1	43.257857411417724	-65.71841426356188	92.65999621266089	0	0	0
289	1	1	43.7550741632731	-66.50596028605824	92.29592648839841	0	0	0
290	1	1	44.25229091512848	-67.21502692726652	92.79592648839841	0	0	0
291	1	1	44.74950766698385	-68.00257294976288	92.43185676413593	0	0	0
292	1	1	45.24672441883923	-68.71163959097116	92.93185676413593	0	0	0
293	1	1	45.743941170694605	-69.49918561346752	92.56778703987345	0	0	0
294	1	1	46.24115792254998	-70.2082522546758	93.06778703987345	0	0	0
295	1	1	46.73837467440536	-70.99579827717216	92.70371731561097	0	0	0
296	1	1	47.23559142626073	-71.70486491838044	93.20371731561097	0	0	0
297	1	1	47.73280817811611	-72.4924109408768	92.8396475913485	0	0	0
298	1	1	48.230024929971485	-73.20147758208508	93.3396475913485	0	0	0
299	1	1	48.72724168182686	-73.98902360458143	92.97557786708602	0	0	0
300	1	1	49.22445843368224	-74.69809024578971	93.47557786708602	0	0	0
301	1	1	49.72167518553761	-75.48563626828607	93.11150814282354	0	0	0

Bonds

1	1	1	2
2	1	2	3
3	1	3	4
4	1	4	5
5	1	5	6
6	1	6	7
7	1	7	8
8	1	8	9
9	1	9	10
10	1	10	11
11	1	11	12
12	1	12	13
13	1	13	14
14	1	14	15
15	1	15	16
16	1	16	17
17	1	17	18
18	1	18	19
19	1	19	20
20	1	20	21
21	1	21	22
22	1	22	23
23	1	23	24
24	1	24	25
25	1	25	26
26	1	26	27
27	1	27	28
28	1	28	29
29	1	29	30
30	1	30	31
31	1	31	32
32	1	32	33
33	1	33	34
34	1	34	35
35	1	35	36
36	1	36	37
37	1	37	38
38	1	38	39
39	1	39	40
40	1	40	41
41	1	41	42
42	1	42	43
43	1	43	44
44	1	44	45
45	1	45	46
46	1	46	47
47	1	47	48
48	1	48	49
49	1	49	50
50	1	50	51
51	1	51	52
52	1	52	53
53	1	53	54
54	1	54	55
55	1	55	56
56	1	56	57
57	1	57	58
58	1	58	59
59	1	59	60
60	1	60	61
61	1	61	62
62	1	62	63
63	1	63	64
64	1	64	65
65	1	65	66
66	1	66	67
67	1	67	68
68	1	68	69
69	1	69	70
70	1	70	71
71	1	71	72
72	1	72	73
73	1	73	74
74	1	74	75
75	1	75	76
76	1	76	77
77	1	77	78
78	1	78	79
79	1	79	80
80	1	80	81
81	1	81	82
82	1	82	83
83	1	83	84
84	1	84	85
85	1	85	86
86	1	86	87
87	1	87	88
88	1	88	89
89	1	89	90
90	1	90	91
91	1	91	92
92	1	92	93
93	1	93	94
94	1	94	95
95	1	95	96
96	1	96	97
97	1	97	98
98	1	98	99
99	1	99	100
100	1	100	101
101	1	101	102
102	1	101	202
103	1	102	103
104	1	103	104
105	1	104	105
106	1	105	106
107	1	106	107
108	1	107	108
109	1	108	109
110	1	109	110
111	1	110	111
112	1	111	112
113	1	112	113
114	1	113	114
115	1	114	115
116	1	115	116
117	1	116	117
118	1	117	118
119	1	118	119
120	1	119	120
121	1	120	121
122	1	121	122
123	1	122	123
124	1	123	124
125	1	124	125
126	1	125	126
127	1	126	127
128	1	127	128
129	1	128	129
130	1	129	130
131	1	130	131
132	1	131	132
133	1	132	133
134	1	133	134
135	1	134	135
136	1	135	136
137	1	136	137
138	1	137	138
139	1	138	139
140	1	139	140
141	1	140	141
142	1	141	142
143	1	142	143
144	1	143	144
145	1	144	145
146	1	145	146
147	1	146	147
148	1	147	148
149	1	148	149
150	1	149	150
151	1	150	151
152	1	151	152
153	1	152	153
154	1	153	154
155	1	154	155
156	1	155	156
157	1	156	157
158	1	157	158
159	1	158	159
160	1	159	160
161	1	160	161
162	1	161	162
163	1	162	163
164	1	163	164
165	1	164	165
166	1	165	166
167	1	166	167
168	1	167	168
169	1	168	169
170	1	169	170
171	1	170	171
172	1	171	172
173	1	172	173
174	1	173	174
175	1	174	175
176	1	175	176
177	1	176	177
178	1	177	178
179	1	178	179
180	1	179	180
181	1	180	181
182	1	181	182
183	1	182	183
184	1	183	184
185	1	184	185
186	1	185	186
187	1	186	187
188	1	187	188
189	1	188	189
190	1	189	190
191	1	190	191
192	1	191	192
193	1	192	193
194	1	193	194
195	1	194	195
196	1	195	196
197	1	196	197
198	1	197	198
199	1	198	199
200	1	199	200
201	1	200	201
202	1	202	203
203	1	203	204
204	1	204	205
205	1	205	206
206	1	206	207
207	1	207	208
208	1	208	209
209	1	209	210
210	1	210	211
211	1	211	212
212	1	212	213
213	1	213	214
214	1	214	215
215	1	215	216
216	1	216	217
217	1	217	218
218	1	218	219
219	1	219	220
220	1	220	221
221	1	221	222
222	1	222	223
223	1	223	224
224	1	224	225
225	1	225	226
226	1	226	227
227	1	227	228
228	1	228	229
229	1	229	230
230	1	230	231
231	1	231	232
232	1	232	233
233	1	233	234
234	1	234	235
235	1	235	236
236	1	236	237
237	1	237	238
238	1	238	239
239	1	239	240
240	1	240	241
241	1	241	242
242	1	242	243
243	1	243	244
244	1	244	245
245	1	245	246
246	1	246	247
247	1	247	248
248	1	248	249
249	1	249	250
250	1	250	251
251	1	251	252
252	1	252	253
253	1	253	254
254	1	254	255
255	1	255	256
256	1	256	257
257	1	257	258
258	1	258	259
259	1	259	260
260	1	260	261
261	1	261	262
262	1	262	263
263	1	263	264
264	1	264	265
265	1	265	266
266	1	266	267
267	1	267	268
268	1	268	269
269	1	269	270
270	1	270	271
271	1	271	272
272	1	272	273
273	1	273	274
274	1	274	275
275	1	275	276
276	1	276	277
277	1	277	278
278	1	278	279
279	1	279	280
280	1	280	281
281	1	281	282
282	1	282	283
283	1	283	284
284	1	284	285
285	1	285	286
286	1	286	287
287	1	287	288
288	1	288	289
289	1	289	290
290	1	290	291
291	1	291	292
292	1	292	293
293	1	293	294
294	1	294	295
295	1	295	296
296	1	296	297
297	1	297	298
298	1	298	299
299	1	299	300
300	1	300	301

Angles

1	1	1	2	3
2	1	2	3	4
3	1	3	4	5
4	1	4	5	6
5	1	5	6	7
6	1	6	7	8
7	1	7	8	9
8	1	8	9	10
9	1	9	10	11
10	1	10	11	12
11	1	11	12	13
12	1	12	13	14
13	1	13	14	15
14	1	14	15	16
15	1	15	16	17
16	1	16	17	18
17	1	17	18	19
18	1	18	19	20
19	1	19	20	21
20	1	20	21	22
21	1	21	22	23
22	1	22	23	24
23	1	23	24	25
24	1	24	25	26
25	1	25	26	27
26	1	26	27	28
27	1	27	28	29
28	1	28	29	30
29	1	29	30	31
30	1	30	31	32
31	1	31	32	33
32	1	32	33	34
33	1	33	34	35
34	1	34	35	36
35	1	35	36	37
36	1	36	37	38
37	1	37	38	39
38	1	38	39	40
39	1	39	40	41
40	1	40	41	42
41	1	41	42	43
42	1	42	43	44
43	1	43	44	45
44	1	44	45	46
45	1	45	46	47
46	1	46	47	48
47	1	47	48	49
48	1	48	49	50
49	1	49	50	51
50	1	50	51	52
51	1	51	52	53
52	1	52	53	54
53	1	53	54	55
54	1	54	55	56
55	1	55	56	57
56	1	56	57	58
57	1	57	58	59
58	1	58	59	60
59	1	59	60	61
60	1	60	61	62
61	1	61	62	63
62	1	62	63	64
63	1	63	64	65
64	1	64	65	66
65	1	65	66	67
66	1	66	67	68
67	1	67	68	69
68	1	68	69	70
69	1	69	70	71
70	1	70	71	72
71	1	71	72	73
72	1	72	73	74
73	1	73	74	75
74	1	74	75	76
75	1	75	76	77
76	1	76	77	78
77	1	77	78	79
78	1	78	79	80
79	1	79	80	81
80	1	80	81	82
81	1	81	82	83
82	1	82	83	84
83	1	83	84	85
84	1	84	85	86
85	1	85	86	87
86	1	86	87	88
87	1	87	88	89
88	1	88	89	90
89	1	89	90	91
90	1	90	91	92
91	1	91	92	93
92	1	92	93	94
93	1	93	94	95
94	1	94	95	96
95	1	95	96	97
96	1	96	97	98
97	1	97	98	99
98	1	98	99	100
99	1	99	100	101
100	1	100	101	102
101	1	100	101	202
102	1	101	102	103
103	1	101	202	203
104	1	102	101	202
105	1	102	103	104
106	1	103	104	105
107	1	104	105	106
108	1	105	106	107
109	1	106	107	108
110	1	107	108	109
111	1	108	109	110
112	1	109	110	111
113	1	110	111	112
114	1	111	112	113
115	1	112	113	114
116	1	113	114	115
117	1	114	115	116
118	1	115	116	117
119	1	116	117	118
120	1	117	118	119
121	1	118	119	120
122	1	119	120	121
123	1	120	121	122
124	1	121	122	123
125	1	122	123	124
126	1	123	124	125
127	1	124	125	126
128	1	125	126	127
129	1	126	127	128
130	1	127	128	129
131	1	128	129	130
132	1	129	130	131
133	1	130	131	132
134	1	131	132	133
135	1	132	133	134
136	1	133	134	135
137	1	134	135	136
138	1	135	136	137
139	1	136	137	138
140	1	137	138	139
141	1	138	139	140
142	1	139	140	141
143	1	140	141	142
144	1	141	142	143
145	1	142	143	144
146	1	143	144	145
147	1	144	145	146
148	1	145	146	147
149	1	146	147	148
150	1	147	148	149
151	1	148	149	150
152	1	149	150	151
153	1	150	151	152
154	1	151	152	153
155	1	152	153	154
156	1	153	154	155
157	1	154	155	156
158	1	155	156	157
159	1	156	157	158
160	1	157	158	159
161	1	158	159	160
162	1	159	160	161
163	1	160	161	162
164	1	161	162	163
165	1	162	163	164
166	1	163	164	165
167	1	164	165	166
168	1	165	166	167
169	1	166	167	168
170	1	167	168	169
171	1	168	169	170
172	1	169	170	171
173	1	170	171	172
174	1	171	172	173
175	1	172	173	174
176	1	173	174	175
177	1	174	175	176
178	1	175	176	177
179	1	176	177	178
180	1	177	178	179
181	1	178	179	180
182	1	179	180	181
183	1	180	181	182
184	1	181	182	183
185	1	182	183	184
186	1	183	184	185
187	1	184	185	186
188	1	185	186	187
189	1	186	187	188
190	1	187	188	189
191	1	188	189	190
192	1	189	190	191
193	1	190	191	192
194	1	191	192	193
195	1	192	193	194
196	1	193	194	195
197	1	194	195	196
198	1	195	196	197
199	1	196	197	198
200	1	197	198	199
201	1	198	199	200
202	1	199	200	201
203	1	202	203	204
204	1	203	204	205
205	1	204	205	206
206	1	205	206	207
207	1	206	207	208
208	1	207	208	209
209	1	208	209	210
210	1	209	210	211
211	1	210	211	212
212	1	211	212	213
213	1	212	213	214
214	1	213	214	215
215	1	214	215	216
216	1	215	216	217
217	1	216	217	218
218	1	217	218	219
219	1	218	219	220
220	1	219	220	221
221	1	220	221	222
222	1	221	222	223
223	1	222	223	224
224	1	223	224	225
225	1	224	225	226
226	1	225	226	227
227	1	226	227	228
228	1	227	228	229
229	1	228	229	230
230	1	229	230	231
231	1	230	231	232
232	1	231	232	233
233	1	232	233	234
234	1	233	234	235
235	1	234	235	236
236	1	235	236	237
237	1	236	237	238
238	1	237	238	239
239	1	238	239	240
240	1	239	240	241
241	1	240	241	242
242	1	241	242	243
243	1	242	243	244
244	1	243	244	245
245	1	244	245	246
246	1	245	246	247
247	1	246	247	248
248	1	247	248	249
249	1	248	249	250
250	1	249	250	251
251	1	250	251	252
252	1	251	252	253
253	1	252	253	254
254	1	253	254	255
255	1	254	255	256
256	1	255	256	257
257	1	256	257	258
258	1	257	258	259
259	1	258	259	260
260	1	259	260	261
261	1	260	261	262
262	1	261	262	263
263	1	262	263	264
264	1	263	264	265
265	1	264	265	266
266	1	265	266	267
267	1	266	267	268
268	1	267	268	269
269	1	268	269	270
270	1	269	270	271
271	1	270	271	272
272	1	271	272	273
273	1	272	273	274
274	1	273	274	275
275	1	274	275	276
276	1	275	276	277
277	1	276	277	278
278	1	277	278	279
279	1	278	279	280
280	1	279	280	281
281	1	280	281	282
282	1	281	282	283
283	1	282	283	284
284	1	283	284	285
285	1	284	285	286
286	1	285	286	287
287	1	286	287	288
288	1	287	288	289
289	1	288	289	290
290	1	289	290	291
291	1	290	291	292
292	1	291	292	293
293	1	292	293	294
294	1	293	294	295
295	1	294	295	296
296	1	295	296	297
297	1	296	297	298
298	1	297	298	299
299	1	298	299	300
300	1	299	300	301
