bb333nuc1bl166bn3d30tot500

499 atoms
498 bonds
498 angles

1 atom types
1 bond types
1 angle types

-1000 1000 xlo xhi
-1000 1000 ylo yhi
-1000 1000 zlo zhi

Masses

1 1

Atoms

1	1	1	0.0	0.0	0.0	0	0	0
2	1	1	0.0	0.0	1.0	0	0	0
3	1	1	0.0	-0.49999999999999994	1.8660254037844388	0	0	0
4	1	1	0.0	0.0	2.7320508075688776	0	0	0
5	1	1	0.0	-0.49999999999999994	3.5980762113533165	0	0	0
6	1	1	0.0	0.0	4.464101615137755	0	0	0
7	1	1	0.0	-0.49999999999999994	5.330127018922194	0	0	0
8	1	1	0.0	0.0	6.196152422706632	0	0	0
9	1	1	0.0	-0.49999999999999994	7.06217782649107	0	0	0
10	1	1	0.0	0.0	7.928203230275509	0	0	0
11	1	1	0.0	-0.49999999999999994	8.794228634059948	0	0	0
12	1	1	0.0	0.0	9.660254037844387	0	0	0
13	1	1	0.0	-0.49999999999999994	10.526279441628827	0	0	0
14	1	1	0.0	0.0	11.392304845413266	0	0	0
15	1	1	0.0	-0.49999999999999994	12.258330249197705	0	0	0
16	1	1	0.0	0.0	13.124355652982144	0	0	0
17	1	1	0.0	-0.49999999999999994	13.990381056766584	0	0	0
18	1	1	0.0	0.0	14.856406460551023	0	0	0
19	1	1	0.0	-0.49999999999999994	15.722431864335462	0	0	0
20	1	1	0.0	0.0	16.5884572681199	0	0	0
21	1	1	0.0	-0.49999999999999994	17.454482671904337	0	0	0
22	1	1	0.0	0.0	18.320508075688775	0	0	0
23	1	1	0.0	-0.49999999999999994	19.186533479473212	0	0	0
24	1	1	0.0	0.0	20.05255888325765	0	0	0
25	1	1	0.0	-0.49999999999999994	20.918584287042087	0	0	0
26	1	1	0.0	0.0	21.784609690826525	0	0	0
27	1	1	0.0	-0.49999999999999994	22.650635094610962	0	0	0
28	1	1	0.0	0.0	23.5166604983954	0	0	0
29	1	1	0.0	-0.49999999999999994	24.382685902179837	0	0	0
30	1	1	0.0	0.0	25.248711305964274	0	0	0
31	1	1	0.0	-0.49999999999999994	26.114736709748712	0	0	0
32	1	1	0.0	0.0	26.98076211353315	0	0	0
33	1	1	0.0	-0.49999999999999994	27.846787517317587	0	0	0
34	1	1	0.0	0.0	28.712812921102024	0	0	0
35	1	1	0.0	-0.49999999999999994	29.578838324886462	0	0	0
36	1	1	0.0	0.0	30.4448637286709	0	0	0
37	1	1	0.0	-0.49999999999999994	31.310889132455337	0	0	0
38	1	1	0.0	0.0	32.17691453623978	0	0	0
39	1	1	0.0	-0.49999999999999994	33.04293994002422	0	0	0
40	1	1	0.0	0.0	33.90896534380866	0	0	0
41	1	1	0.0	-0.49999999999999994	34.7749907475931	0	0	0
42	1	1	0.0	0.0	35.64101615137754	0	0	0
43	1	1	0.0	-0.49999999999999994	36.50704155516198	0	0	0
44	1	1	0.0	0.0	37.373066958946424	0	0	0
45	1	1	0.0	-0.49999999999999994	38.239092362730865	0	0	0
46	1	1	0.0	0.0	39.105117766515306	0	0	0
47	1	1	0.0	-0.49999999999999994	39.97114317029975	0	0	0
48	1	1	0.0	0.0	40.83716857408419	0	0	0
49	1	1	0.0	-0.49999999999999994	41.70319397786863	0	0	0
50	1	1	0.0	0.0	42.56921938165307	0	0	0
51	1	1	0.0	-0.49999999999999994	43.43524478543751	0	0	0
52	1	1	0.0	0.0	44.30127018922195	0	0	0
53	1	1	0.0	-0.49999999999999994	45.16729559300639	0	0	0
54	1	1	0.0	0.0	46.033320996790835	0	0	0
55	1	1	0.0	-0.49999999999999994	46.899346400575276	0	0	0
56	1	1	0.0	0.0	47.76537180435972	0	0	0
57	1	1	0.0	-0.49999999999999994	48.63139720814416	0	0	0
58	1	1	0.0	0.0	49.4974226119286	0	0	0
59	1	1	0.0	-0.49999999999999994	50.36344801571304	0	0	0
60	1	1	0.0	0.0	51.22947341949748	0	0	0
61	1	1	0.0	-0.49999999999999994	52.09549882328192	0	0	0
62	1	1	0.0	0.0	52.96152422706636	0	0	0
63	1	1	0.0	-0.49999999999999994	53.827549630850804	0	0	0
64	1	1	0.0	0.0	54.693575034635245	0	0	0
65	1	1	0.0	-0.49999999999999994	55.559600438419686	0	0	0
66	1	1	0.0	0.0	56.42562584220413	0	0	0
67	1	1	0.0	-0.49999999999999994	57.29165124598857	0	0	0
68	1	1	0.0	0.0	58.15767664977301	0	0	0
69	1	1	0.0	-0.49999999999999994	59.02370205355745	0	0	0
70	1	1	0.0	0.0	59.88972745734189	0	0	0
71	1	1	0.0	-0.49999999999999994	60.75575286112633	0	0	0
72	1	1	0.0	0.0	61.62177826491077	0	0	0
73	1	1	0.0	-0.49999999999999994	62.487803668695214	0	0	0
74	1	1	0.0	0.0	63.353829072479655	0	0	0
75	1	1	0.0	-0.49999999999999994	64.21985447626409	0	0	0
76	1	1	0.0	0.0	65.08587988004852	0	0	0
77	1	1	0.0	-0.49999999999999994	65.95190528383296	0	0	0
78	1	1	0.0	0.0	66.81793068761739	0	0	0
79	1	1	0.0	-0.49999999999999994	67.68395609140183	0	0	0
80	1	1	0.0	0.0	68.54998149518626	0	0	0
81	1	1	0.0	-0.49999999999999994	69.41600689897069	0	0	0
82	1	1	0.0	0.0	70.28203230275513	0	0	0
83	1	1	0.0	-0.49999999999999994	71.14805770653956	0	0	0
84	1	1	0.0	0.0	72.014083110324	0	0	0
85	1	1	0.0	-0.49999999999999994	72.88010851410843	0	0	0
86	1	1	0.0	0.0	73.74613391789286	0	0	0
87	1	1	0.0	-0.49999999999999994	74.6121593216773	0	0	0
88	1	1	0.0	0.0	75.47818472546173	0	0	0
89	1	1	0.0	-0.49999999999999994	76.34421012924616	0	0	0
90	1	1	0.0	0.0	77.2102355330306	0	0	0
91	1	1	0.0	-0.49999999999999994	78.07626093681503	0	0	0
92	1	1	0.0	0.0	78.94228634059947	0	0	0
93	1	1	0.0	-0.49999999999999994	79.8083117443839	0	0	0
94	1	1	0.0	0.0	80.67433714816833	0	0	0
95	1	1	0.0	-0.49999999999999994	81.54036255195277	0	0	0
96	1	1	0.0	0.0	82.4063879557372	0	0	0
97	1	1	0.0	-0.49999999999999994	83.27241335952164	0	0	0
98	1	1	0.0	0.0	84.13843876330607	0	0	0
99	1	1	0.0	-0.49999999999999994	85.0044641670905	0	0	0
100	1	1	0.0	0.0	85.87048957087494	0	0	0
101	1	1	0.0	-0.49999999999999994	86.73651497465937	0	0	0
102	1	1	0.0	0.0	87.6025403784438	0	0	0
103	1	1	0.0	-0.49999999999999994	88.46856578222824	0	0	0
104	1	1	0.0	0.0	89.33459118601267	0	0	0
105	1	1	0.0	-0.49999999999999994	90.20061658979711	0	0	0
106	1	1	0.0	0.0	91.06664199358154	0	0	0
107	1	1	0.0	-0.49999999999999994	91.93266739736598	0	0	0
108	1	1	0.0	0.0	92.79869280115041	0	0	0
109	1	1	0.0	-0.49999999999999994	93.66471820493484	0	0	0
110	1	1	0.0	0.0	94.53074360871928	0	0	0
111	1	1	0.0	-0.49999999999999994	95.39676901250371	0	0	0
112	1	1	0.0	0.0	96.26279441628814	0	0	0
113	1	1	0.0	-0.49999999999999994	97.12881982007258	0	0	0
114	1	1	0.0	0.0	97.99484522385701	0	0	0
115	1	1	0.0	-0.49999999999999994	98.86087062764145	0	0	0
116	1	1	0.0	0.0	99.72689603142588	0	0	0
117	1	1	0.0	-0.49999999999999994	100.59292143521031	0	0	0
118	1	1	0.0	0.0	101.45894683899475	0	0	0
119	1	1	0.0	-0.49999999999999994	102.32497224277918	0	0	0
120	1	1	0.0	0.0	103.19099764656362	0	0	0
121	1	1	0.0	-0.49999999999999994	104.05702305034805	0	0	0
122	1	1	0.0	0.0	104.92304845413248	0	0	0
123	1	1	0.0	-0.49999999999999994	105.78907385791692	0	0	0
124	1	1	0.0	0.0	106.65509926170135	0	0	0
125	1	1	0.0	-0.49999999999999994	107.52112466548579	0	0	0
126	1	1	0.0	0.0	108.38715006927022	0	0	0
127	1	1	0.0	-0.49999999999999994	109.25317547305465	0	0	0
128	1	1	0.0	0.0	110.11920087683909	0	0	0
129	1	1	0.0	-0.49999999999999994	110.98522628062352	0	0	0
130	1	1	0.0	0.0	111.85125168440796	0	0	0
131	1	1	0.0	-0.49999999999999994	112.71727708819239	0	0	0
132	1	1	0.0	0.0	113.58330249197682	0	0	0
133	1	1	0.0	-0.49999999999999994	114.44932789576126	0	0	0
134	1	1	0.0	0.0	115.31535329954569	0	0	0
135	1	1	0.0	-0.49999999999999994	116.18137870333013	0	0	0
136	1	1	0.0	0.0	117.04740410711456	0	0	0
137	1	1	0.0	-0.49999999999999994	117.913429510899	0	0	0
138	1	1	0.0	0.0	118.77945491468343	0	0	0
139	1	1	0.0	-0.49999999999999994	119.64548031846786	0	0	0
140	1	1	0.0	0.0	120.5115057222523	0	0	0
141	1	1	0.0	-0.49999999999999994	121.37753112603673	0	0	0
142	1	1	0.0	0.0	122.24355652982116	0	0	0
143	1	1	0.0	-0.49999999999999994	123.1095819336056	0	0	0
144	1	1	0.0	0.0	123.97560733739003	0	0	0
145	1	1	0.0	-0.49999999999999994	124.84163274117446	0	0	0
146	1	1	0.0	0.0	125.7076581449589	0	0	0
147	1	1	0.0	-0.49999999999999994	126.57368354874333	0	0	0
148	1	1	0.0	0.0	127.43970895252777	0	0	0
149	1	1	0.0	-0.49999999999999994	128.3057343563122	0	0	0
150	1	1	0.0	0.0	129.17175976009665	0	0	0
151	1	1	0.0	-0.49999999999999994	130.0377851638811	0	0	0
152	1	1	0.0	0.0	130.90381056766554	0	0	0
153	1	1	0.0	-0.49999999999999994	131.76983597145	0	0	0
154	1	1	0.0	0.0	132.63586137523444	0	0	0
155	1	1	0.0	-0.49999999999999994	133.5018867790189	0	0	0
156	1	1	0.0	0.0	134.36791218280334	0	0	0
157	1	1	0.0	-0.49999999999999994	135.23393758658779	0	0	0
158	1	1	0.0	0.0	136.09996299037223	0	0	0
159	1	1	0.0	-0.49999999999999994	136.96598839415668	0	0	0
160	1	1	0.0	0.0	137.83201379794113	0	0	0
161	1	1	0.0	-0.49999999999999994	138.69803920172558	0	0	0
162	1	1	0.0	0.0	139.56406460551003	0	0	0
163	1	1	0.0	-0.49999999999999994	140.43009000929447	0	0	0
164	1	1	0.0	0.0	141.29611541307892	0	0	0
165	1	1	0.0	-0.49999999999999994	142.16214081686337	0	0	0
166	1	1	0.0	0.0	143.02816622064782	0	0	0
167	1	1	0.0	-0.49999999999999994	143.89419162443227	0	0	0
168	1	1	-0.0895709039428477	-0.004022259128894146	144.7578947758259	0	0	0
169	1	1	-0.17914180788569464	-0.006344511519711474	145.753872516697	0	0	0
170	1	1	-0.2687127118285416	0.8550363874830849	146.253872516697	0	0	0
171	1	1	-0.35828361577138856	0.8527141350922676	147.24985025756808	0	0	0
172	1	1	-0.4478545197142355	1.714095034095064	147.74985025756808	0	0	0
173	1	1	-0.5374254236570825	1.7117727817042467	148.74582799843918	0	0	0
174	1	1	-0.6269963275999294	2.573153680707043	149.24582799843918	0	0	0
175	1	1	-0.7165672315427764	2.5708314283162257	150.24180573931028	0	0	0
176	1	1	-0.8061381354856233	3.432212327319022	150.74180573931028	0	0	0
177	1	1	-0.8957090394284702	3.4298900749282044	151.73778348018138	0	0	0
178	1	1	-0.9852799433713172	4.291270973931001	152.23778348018138	0	0	0
179	1	1	-1.0748508473141642	4.288948721540184	153.23376122105248	0	0	0
180	1	1	-1.1644217512570112	5.15032962054298	153.73376122105248	0	0	0
181	1	1	-1.2539926551998581	5.148007368152163	154.72973896192357	0	0	0
182	1	1	-1.343563559142705	6.009388267154959	155.22973896192357	0	0	0
183	1	1	-1.433134463085552	6.007066014764142	156.22571670279467	0	0	0
184	1	1	-1.522705367028399	6.868446913766938	156.72571670279467	0	0	0
185	1	1	-1.612276270971246	6.866124661376121	157.72169444366577	0	0	0
186	1	1	-1.7018471749140929	7.727505560378917	158.22169444366577	0	0	0
187	1	1	-1.7914180788569398	7.7251833079881	159.21767218453687	0	0	0
188	1	1	-1.8809889827997868	8.586564206990897	159.71767218453687	0	0	0
189	1	1	-1.9705598867426337	8.58424195460008	160.71364992540796	0	0	0
190	1	1	-2.0601307906854807	9.445622853602876	161.21364992540796	0	0	0
191	1	1	-2.1497016946283276	9.443300601212059	162.20962766627906	0	0	0
192	1	1	-2.2392725985711746	10.304681500214855	162.70962766627906	0	0	0
193	1	1	-2.3288435025140215	10.302359247824038	163.70560540715016	0	0	0
194	1	1	-2.4184144064568684	11.163740146826834	164.20560540715016	0	0	0
195	1	1	-2.5079853103997154	11.161417894436017	165.20158314802126	0	0	0
196	1	1	-2.5975562143425623	12.022798793438813	165.70158314802126	0	0	0
197	1	1	-2.6871271182854093	12.020476541047996	166.69756088889235	0	0	0
198	1	1	-2.7766980222282562	12.881857440050792	167.19756088889235	0	0	0
199	1	1	-2.866268926171103	12.879535187659975	168.19353862976345	0	0	0
200	1	1	-2.95583983011395	13.740916086662772	168.69353862976345	0	0	0
201	1	1	-3.045410734056797	13.738593834271954	169.68951637063455	0	0	0
202	1	1	-3.134981637999644	14.59997473327475	170.18951637063455	0	0	0
203	1	1	-3.224552541942491	14.597652480883934	171.18549411150565	0	0	0
204	1	1	-3.314123445885338	15.45903337988673	171.68549411150565	0	0	0
205	1	1	-3.403694349828185	15.456711127495913	172.68147185237675	0	0	0
206	1	1	-3.493265253771032	16.31809202649871	173.18147185237675	0	0	0
207	1	1	-3.5828361577138788	16.315769774107892	174.17744959324784	0	0	0
208	1	1	-3.6724070616567257	17.177150673110688	174.67744959324784	0	0	0
209	1	1	-3.7619779655995726	17.17482842071987	175.67342733411894	0	0	0
210	1	1	-3.8515488695424196	18.036209319722666	176.17342733411894	0	0	0
211	1	1	-3.9411197734852665	18.033887067331847	177.16940507499004	0	0	0
212	1	1	-4.0306906774281135	18.895267966334643	177.66940507499004	0	0	0
213	1	1	-4.12026158137096	18.892945713943824	178.66538281586114	0	0	0
214	1	1	-4.209832485313807	19.75432661294662	179.16538281586114	0	0	0
215	1	1	-4.299403389256654	19.7520043605558	180.16136055673223	0	0	0
216	1	1	-4.388974293199501	20.613385259558598	180.66136055673223	0	0	0
217	1	1	-4.478545197142348	20.61106300716778	181.65733829760333	0	0	0
218	1	1	-4.568116101085195	21.472443906170575	182.15733829760333	0	0	0
219	1	1	-4.657687005028042	21.470121653779756	183.15331603847443	0	0	0
220	1	1	-4.747257908970889	22.331502552782553	183.65331603847443	0	0	0
221	1	1	-4.836828812913736	22.329180300391734	184.64929377934553	0	0	0
222	1	1	-4.926399716856583	23.19056119939453	185.14929377934553	0	0	0
223	1	1	-5.01597062079943	23.18823894700371	186.14527152021662	0	0	0
224	1	1	-5.105541524742277	24.049619846006507	186.64527152021662	0	0	0
225	1	1	-5.195112428685124	24.04729759361569	187.64124926108772	0	0	0
226	1	1	-5.284683332627971	24.908678492618485	188.14124926108772	0	0	0
227	1	1	-5.374254236570818	24.906356240227666	189.13722700195882	0	0	0
228	1	1	-5.463825140513665	25.767737139230462	189.63722700195882	0	0	0
229	1	1	-5.553396044456512	25.765414886839643	190.63320474282992	0	0	0
230	1	1	-5.6429669483993585	26.62679578584244	191.13320474282992	0	0	0
231	1	1	-5.7325378523422055	26.62447353345162	192.12918248370102	0	0	0
232	1	1	-5.822108756285052	27.485854432454417	192.62918248370102	0	0	0
233	1	1	-5.911679660227899	27.483532180063598	193.6251602245721	0	0	0
234	1	1	-6.001250564170746	28.344913079066394	194.1251602245721	0	0	0
235	1	1	-6.090821468113593	28.342590826675575	195.1211379654432	0	0	0
236	1	1	-6.18039237205644	29.20397172567837	195.6211379654432	0	0	0
237	1	1	-6.269963275999287	29.201649473287553	196.6171157063143	0	0	0
238	1	1	-6.359534179942134	30.06303037229035	197.1171157063143	0	0	0
239	1	1	-6.449105083884981	30.06070811989953	198.1130934471854	0	0	0
240	1	1	-6.538675987827828	30.922089018902327	198.6130934471854	0	0	0
241	1	1	-6.628246891770675	30.919766766511508	199.6090711880565	0	0	0
242	1	1	-6.717817795713522	31.781147665514304	200.1090711880565	0	0	0
243	1	1	-6.807388699656369	31.778825413123485	201.1050489289276	0	0	0
244	1	1	-6.896959603599216	32.64020631212628	201.6050489289276	0	0	0
245	1	1	-6.986530507542063	32.63788405973546	202.6010266697987	0	0	0
246	1	1	-7.07610141148491	33.49926495873826	203.1010266697987	0	0	0
247	1	1	-7.165672315427757	33.49694270634744	204.0970044106698	0	0	0
248	1	1	-7.255243219370604	34.358323605350236	204.5970044106698	0	0	0
249	1	1	-7.3448141233134505	34.35600135295942	205.5929821515409	0	0	0
250	1	1	-7.4343850272562975	35.21738225196221	206.0929821515409	0	0	0
251	1	1	-7.523955931199144	35.215059999571395	207.088959892412	0	0	0
252	1	1	-7.613526835141991	36.07644089857419	207.588959892412	0	0	0
253	1	1	-7.703097739084838	36.07411864618337	208.5849376332831	0	0	0
254	1	1	-7.792668643027685	36.93549954518617	209.0849376332831	0	0	0
255	1	1	-7.882239546970532	36.93317729279535	210.0809153741542	0	0	0
256	1	1	-7.971810450913379	37.794558191798146	210.5809153741542	0	0	0
257	1	1	-8.061381354856227	37.79223593940733	211.57689311502529	0	0	0
258	1	1	-8.150952258799073	38.65361683841012	212.07689311502529	0	0	0
259	1	1	-8.240523162741919	38.651294586019304	213.07287085589638	0	0	0
260	1	1	-8.330094066684765	39.5126754850221	213.57287085589638	0	0	0
261	1	1	-8.419664970627611	39.51035323263128	214.56884859676748	0	0	0
262	1	1	-8.509235874570457	40.37173413163408	215.06884859676748	0	0	0
263	1	1	-8.598806778513303	40.36941187924326	216.06482633763858	0	0	0
264	1	1	-8.68837768245615	41.230792778246055	216.56482633763858	0	0	0
265	1	1	-8.777948586398995	41.228470525855236	217.56080407850968	0	0	0
266	1	1	-8.867519490341842	42.08985142485803	218.06080407850968	0	0	0
267	1	1	-8.957090394284688	42.087529172467214	219.05678181938077	0	0	0
268	1	1	-9.046661298227534	42.94891007147001	219.55678181938077	0	0	0
269	1	1	-9.13623220217038	42.94658781907919	220.55275956025187	0	0	0
270	1	1	-9.225803106113226	43.80796871808199	221.05275956025187	0	0	0
271	1	1	-9.315374010056072	43.80564646569117	222.04873730112297	0	0	0
272	1	1	-9.404944913998918	44.667027364693965	222.54873730112297	0	0	0
273	1	1	-9.494515817941764	44.664705112303146	223.54471504199407	0	0	0
274	1	1	-9.58408672188461	45.52608601130594	224.04471504199407	0	0	0
275	1	1	-9.673657625827456	45.52376375891512	225.04069278286516	0	0	0
276	1	1	-9.763228529770302	46.38514465791792	225.54069278286516	0	0	0
277	1	1	-9.852799433713148	46.3828224055271	226.53667052373626	0	0	0
278	1	1	-9.942370337655994	47.2442033045299	227.03667052373626	0	0	0
279	1	1	-10.03194124159884	47.24188105213908	228.03264826460736	0	0	0
280	1	1	-10.121512145541686	48.103261951141874	228.53264826460736	0	0	0
281	1	1	-10.211083049484532	48.100939698751056	229.52862600547846	0	0	0
282	1	1	-10.300653953427378	48.96232059775385	230.02862600547846	0	0	0
283	1	1	-10.390224857370224	48.95999834536303	231.02460374634956	0	0	0
284	1	1	-10.47979576131307	49.82137924436583	231.52460374634956	0	0	0
285	1	1	-10.569366665255917	49.81905699197501	232.52058148722065	0	0	0
286	1	1	-10.658937569198763	50.68043789097781	233.02058148722065	0	0	0
287	1	1	-10.748508473141609	50.67811563858699	234.01655922809175	0	0	0
288	1	1	-10.838079377084455	51.539496537589784	234.51655922809175	0	0	0
289	1	1	-10.9276502810273	51.537174285198965	235.51253696896285	0	0	0
290	1	1	-11.017221184970147	52.39855518420176	236.01253696896285	0	0	0
291	1	1	-11.106792088912993	52.39623293181094	237.00851470983395	0	0	0
292	1	1	-11.196362992855839	53.25761383081374	237.50851470983395	0	0	0
293	1	1	-11.285933896798685	53.25529157842292	238.50449245070504	0	0	0
294	1	1	-11.375504800741531	54.116672477425716	239.00449245070504	0	0	0
295	1	1	-11.465075704684377	54.1143502250349	240.00047019157614	0	0	0
296	1	1	-11.554646608627223	54.975731124037694	240.50047019157614	0	0	0
297	1	1	-11.64421751257007	54.973408871646875	241.49644793244724	0	0	0
298	1	1	-11.733788416512915	55.83478977064967	241.99644793244724	0	0	0
299	1	1	-11.823359320455761	55.83246751825885	242.99242567331834	0	0	0
300	1	1	-11.912930224398607	56.69384841726165	243.49242567331834	0	0	0
301	1	1	-12.002501128341454	56.69152616487083	244.48840341418943	0	0	0
302	1	1	-12.0920720322843	57.552907063873626	244.98840341418943	0	0	0
303	1	1	-12.181642936227146	57.55058481148281	245.98438115506053	0	0	0
304	1	1	-12.271213840169992	58.4119657104856	246.48438115506053	0	0	0
305	1	1	-12.360784744112838	58.409643458094784	247.48035889593163	0	0	0
306	1	1	-12.450355648055684	59.27102435709758	247.98035889593163	0	0	0
307	1	1	-12.53992655199853	59.26870210470676	248.97633663680273	0	0	0
308	1	1	-12.629497455941376	60.13008300370956	249.47633663680273	0	0	0
309	1	1	-12.719068359884222	60.12776075131874	250.47231437767383	0	0	0
310	1	1	-12.808639263827068	60.989141650321535	250.97231437767383	0	0	0
311	1	1	-12.898210167769914	60.98681939793072	251.96829211854492	0	0	0
312	1	1	-12.98778107171276	61.84820029693351	252.46829211854492	0	0	0
313	1	1	-13.077351975655606	61.845878044542694	253.46426985941602	0	0	0
314	1	1	-13.166922879598452	62.70725894354549	253.96426985941602	0	0	0
315	1	1	-13.256493783541298	62.70493669115467	254.96024760028712	0	0	0
316	1	1	-13.346064687484144	63.56631759015747	255.46024760028712	0	0	0
317	1	1	-13.43563559142699	63.56399533776665	256.4562253411582	0	0	0
318	1	1	-13.525206495369837	64.42537623676945	256.9562253411582	0	0	0
319	1	1	-13.614777399312683	64.42305398437864	257.95220308202926	0	0	0
320	1	1	-13.704348303255529	65.28443488338144	258.45220308202926	0	0	0
321	1	1	-13.793919207198375	65.28211263099062	259.4481808229003	0	0	0
322	1	1	-13.88349011114122	66.14349352999342	259.9481808229003	0	0	0
323	1	1	-13.973061015084067	66.14117127760261	260.9441585637714	0	0	0
324	1	1	-14.062631919026913	67.0025521766054	261.4441585637714	0	0	0
325	1	1	-14.152202822969759	67.0002299242146	262.44013630464246	0	0	0
326	1	1	-14.241773726912605	67.86161082321739	262.94013630464246	0	0	0
327	1	1	-14.331344630855451	67.85928857082658	263.93611404551353	0	0	0
328	1	1	-14.420915534798297	68.72066946982937	264.43611404551353	0	0	0
329	1	1	-14.510486438741143	68.71834721743856	265.4320917863846	0	0	0
330	1	1	-14.60005734268399	69.57972811644136	265.9320917863846	0	0	0
331	1	1	-14.689628246626835	69.57740586405055	266.9280695272557	0	0	0
332	1	1	-14.779199150569681	70.43878676305334	267.4280695272557	0	0	0
333	1	1	-14.868770054512527	70.43646451066253	268.42404726812674	0	0	0
334	1	1	0.0895709039428034	-1.4959777408711097	143.8965138768231	0	0	0
335	1	1	0.17914180788560605	-2.359680892264731	143.400536135952	0	0	0
336	1	1	0.2687127118284087	-3.221061791267527	143.900536135952	0	0	0
337	1	1	0.3582836157712114	-4.084764942661148	143.4045583950809	0	0	0
338	1	1	0.447854519714014	-4.946145841663944	143.9045583950809	0	0	0
339	1	1	0.5374254236568167	-5.809848993057566	143.4085806542098	0	0	0
340	1	1	0.6269963275996193	-6.671229892060362	143.9085806542098	0	0	0
341	1	1	0.716567231542422	-7.534933043453983	143.4126029133387	0	0	0
342	1	1	0.8061381354852246	-8.396313942456779	143.9126029133387	0	0	0
343	1	1	0.8957090394280273	-9.260017093850399	143.4166251724676	0	0	0
344	1	1	0.9852799433708299	-10.121397992853195	143.9166251724676	0	0	0
345	1	1	1.0748508473136327	-10.985101144246816	143.4206474315965	0	0	0
346	1	1	1.1644217512564352	-11.846482043249612	143.9206474315965	0	0	0
347	1	1	1.2539926551992377	-12.710185194643232	143.4246696907254	0	0	0
348	1	1	1.3435635591420403	-13.571566093646029	143.9246696907254	0	0	0
349	1	1	1.4331344630848428	-14.435269245039649	143.4286919498543	0	0	0
350	1	1	1.5227053670276454	-15.296650144042445	143.9286919498543	0	0	0
351	1	1	1.612276270970448	-16.160353295436067	143.4327142089832	0	0	0
352	1	1	1.7018471749132504	-17.021734194438864	143.9327142089832	0	0	0
353	1	1	1.791418078856053	-17.885437345832486	143.43673646811212	0	0	0
354	1	1	1.8809889827988555	-18.746818244835282	143.93673646811212	0	0	0
355	1	1	1.970559886741658	-19.610521396228904	143.44075872724102	0	0	0
356	1	1	2.0601307906844606	-20.4719022952317	143.94075872724102	0	0	0
357	1	1	2.149701694627263	-21.335605446625323	143.44478098636992	0	0	0
358	1	1	2.2392725985700657	-22.19698634562812	143.94478098636992	0	0	0
359	1	1	2.328843502512868	-23.06068949702174	143.44880324549882	0	0	0
360	1	1	2.4184144064556707	-23.922070396024537	143.94880324549882	0	0	0
361	1	1	2.5079853103984733	-24.78577354741816	143.45282550462773	0	0	0
362	1	1	2.597556214341276	-25.647154446420956	143.95282550462773	0	0	0
363	1	1	2.6871271182840784	-26.510857597814578	143.45684776375663	0	0	0
364	1	1	2.776698022226881	-27.372238496817374	143.95684776375663	0	0	0
365	1	1	2.8662689261696834	-28.235941648210996	143.46087002288553	0	0	0
366	1	1	2.955839830112486	-29.097322547213793	143.96087002288553	0	0	0
367	1	1	3.0454107340552885	-29.961025698607415	143.46489228201443	0	0	0
368	1	1	3.134981637998091	-30.82240659761021	143.96489228201443	0	0	0
369	1	1	3.2245525419408936	-31.686109749003833	143.46891454114333	0	0	0
370	1	1	3.314123445883696	-32.54749064800663	143.96891454114333	0	0	0
371	1	1	3.4036943498264987	-33.41119379940025	143.47293680027224	0	0	0
372	1	1	3.493265253769301	-34.27257469840305	143.97293680027224	0	0	0
373	1	1	3.5828361577121037	-35.13627784979667	143.47695905940114	0	0	0
374	1	1	3.6724070616549063	-35.997658748799466	143.97695905940114	0	0	0
375	1	1	3.761977965597709	-36.86136190019309	143.48098131853004	0	0	0
376	1	1	3.8515488695405113	-37.722742799195885	143.98098131853004	0	0	0
377	1	1	3.941119773483314	-38.58644595058951	143.48500357765894	0	0	0
378	1	1	4.030690677426117	-39.4478268495923	143.98500357765894	0	0	0
379	1	1	4.120261581368919	-40.311530000985925	143.48902583678785	0	0	0
380	1	1	4.209832485311722	-41.17291089998872	143.98902583678785	0	0	0
381	1	1	4.2994033892545245	-42.036614051382344	143.49304809591675	0	0	0
382	1	1	4.388974293197327	-42.89799495038514	143.99304809591675	0	0	0
383	1	1	4.4785451971401296	-43.76169810177876	143.49707035504565	0	0	0
384	1	1	4.568116101082932	-44.62307900078156	143.99707035504565	0	0	0
385	1	1	4.657687005025735	-45.48678215217518	143.50109261417455	0	0	0
386	1	1	4.747257908968537	-46.34816305117798	144.00109261417455	0	0	0
387	1	1	4.83682881291134	-47.2118662025716	143.50511487330346	0	0	0
388	1	1	4.926399716854142	-48.073247101574395	144.00511487330346	0	0	0
389	1	1	5.015970620796945	-48.93695025296802	143.50913713243236	0	0	0
390	1	1	5.105541524739747	-49.798331151970814	144.00913713243236	0	0	0
391	1	1	5.19511242868255	-50.662034303364436	143.51315939156126	0	0	0
392	1	1	5.284683332625352	-51.52341520236723	144.01315939156126	0	0	0
393	1	1	5.374254236568155	-52.387118353760854	143.51718165069016	0	0	0
394	1	1	5.4638251405109575	-53.24849925276365	144.01718165069016	0	0	0
395	1	1	5.55339604445376	-54.11220240415727	143.52120390981906	0	0	0
396	1	1	5.6429669483965625	-54.97358330316007	144.02120390981906	0	0	0
397	1	1	5.732537852339365	-55.83728645455369	143.52522616894797	0	0	0
398	1	1	5.822108756282168	-56.69866735355649	144.02522616894797	0	0	0
399	1	1	5.91167966022497	-57.56237050495011	143.52924842807687	0	0	0
400	1	1	6.001250564167773	-58.423751403952906	144.02924842807687	0	0	0
401	1	1	6.090821468110575	-59.28745455534653	143.53327068720577	0	0	0
402	1	1	6.180392372053378	-60.148835454349324	144.03327068720577	0	0	0
403	1	1	6.26996327599618	-61.01253860574295	143.53729294633467	0	0	0
404	1	1	6.359534179938983	-61.87391950474574	144.03729294633467	0	0	0
405	1	1	6.449105083881785	-62.737622656139365	143.54131520546358	0	0	0
406	1	1	6.538675987824588	-63.59900355514216	144.04131520546358	0	0	0
407	1	1	6.6282468917673905	-64.46270670653578	143.54533746459248	0	0	0
408	1	1	6.717817795710193	-65.32408760553858	144.04533746459248	0	0	0
409	1	1	6.8073886996529955	-66.1877907569322	143.54935972372138	0	0	0
410	1	1	6.896959603595798	-67.049171655935	144.04935972372138	0	0	0
411	1	1	6.986530507538601	-67.91287480732862	143.55338198285028	0	0	0
412	1	1	7.076101411481403	-68.77425570633142	144.05338198285028	0	0	0
413	1	1	7.165672315424206	-69.63795885772504	143.55740424197919	0	0	0
414	1	1	7.255243219367008	-70.49933975672784	144.05740424197919	0	0	0
415	1	1	7.344814123309811	-71.36304290812146	143.5614265011081	0	0	0
416	1	1	7.434385027252613	-72.22442380712425	144.0614265011081	0	0	0
417	1	1	7.523955931195416	-73.08812695851788	143.565448760237	0	0	0
418	1	1	7.613526835138218	-73.94950785752067	144.065448760237	0	0	0
419	1	1	7.703097739081021	-74.8132110089143	143.5694710193659	0	0	0
420	1	1	7.7926686430238234	-75.67459190791709	144.0694710193659	0	0	0
421	1	1	7.882239546966626	-76.53829505931071	143.5734932784948	0	0	0
422	1	1	7.9718104509094285	-77.39967595831351	144.0734932784948	0	0	0
423	1	1	8.061381354852232	-78.26337910970713	143.5775155376237	0	0	0
424	1	1	8.150952258795035	-79.12476000870993	144.0775155376237	0	0	0
425	1	1	8.240523162737839	-79.98846316010355	143.5815377967526	0	0	0
426	1	1	8.330094066680642	-80.84984405910635	144.0815377967526	0	0	0
427	1	1	8.419664970623446	-81.71354721049997	143.5855600558815	0	0	0
428	1	1	8.509235874566249	-82.57492810950276	144.0855600558815	0	0	0
429	1	1	8.598806778509053	-83.43863126089639	143.5895823150104	0	0	0
430	1	1	8.688377682451856	-84.30001215989918	144.0895823150104	0	0	0
431	1	1	8.77794858639466	-85.1637153112928	143.5936045741393	0	0	0
432	1	1	8.867519490337463	-86.0250962102956	144.0936045741393	0	0	0
433	1	1	8.957090394280266	-86.88879936168922	143.5976268332682	0	0	0
434	1	1	9.04666129822307	-87.75018026069202	144.0976268332682	0	0	0
435	1	1	9.136232202165873	-88.61388341208564	143.6016490923971	0	0	0
436	1	1	9.225803106108676	-89.47526431108844	144.1016490923971	0	0	0
437	1	1	9.31537401005148	-90.33896746248206	143.605671351526	0	0	0
438	1	1	9.404944913994283	-91.20034836148486	144.105671351526	0	0	0
439	1	1	9.494515817937087	-92.06405151287848	143.60969361065492	0	0	0
440	1	1	9.58408672187989	-92.92543241188127	144.10969361065492	0	0	0
441	1	1	9.673657625822694	-93.7891355632749	143.61371586978382	0	0	0
442	1	1	9.763228529765497	-94.6505164622777	144.11371586978382	0	0	0
443	1	1	9.8527994337083	-95.51421961367132	143.61773812891272	0	0	0
444	1	1	9.942370337651104	-96.37560051267411	144.11773812891272	0	0	0
445	1	1	10.031941241593907	-97.23930366406773	143.62176038804162	0	0	0
446	1	1	10.12151214553671	-98.10068456307053	144.12176038804162	0	0	0
447	1	1	10.211083049479514	-98.96438771446415	143.62578264717052	0	0	0
448	1	1	10.300653953422318	-99.82576861346695	144.12578264717052	0	0	0
449	1	1	10.390224857365121	-100.68947176486057	143.62980490629943	0	0	0
450	1	1	10.479795761307924	-101.55085266386337	144.12980490629943	0	0	0
451	1	1	10.569366665250728	-102.41455581525699	143.63382716542833	0	0	0
452	1	1	10.658937569193531	-103.27593671425979	144.13382716542833	0	0	0
453	1	1	10.748508473136335	-104.13963986565341	143.63784942455723	0	0	0
454	1	1	10.838079377079138	-105.0010207646562	144.13784942455723	0	0	0
455	1	1	10.927650281021942	-105.86472391604983	143.64187168368613	0	0	0
456	1	1	11.017221184964745	-106.72610481505262	144.14187168368613	0	0	0
457	1	1	11.106792088907548	-107.58980796644624	143.64589394281504	0	0	0
458	1	1	11.196362992850352	-108.45118886544904	144.14589394281504	0	0	0
459	1	1	11.285933896793155	-109.31489201684266	143.64991620194394	0	0	0
460	1	1	11.375504800735959	-110.17627291584546	144.14991620194394	0	0	0
461	1	1	11.465075704678762	-111.03997606723908	143.65393846107284	0	0	0
462	1	1	11.554646608621566	-111.90135696624188	144.15393846107284	0	0	0
463	1	1	11.644217512564369	-112.7650601176355	143.65796072020174	0	0	0
464	1	1	11.733788416507172	-113.6264410166383	144.15796072020174	0	0	0
465	1	1	11.823359320449976	-114.49014416803192	143.66198297933065	0	0	0
466	1	1	11.91293022439278	-115.35152506703471	144.16198297933065	0	0	0
467	1	1	12.002501128335583	-116.21522821842834	143.66600523845955	0	0	0
468	1	1	12.092072032278386	-117.07660911743113	144.16600523845955	0	0	0
469	1	1	12.18164293622119	-117.94031226882475	143.67002749758845	0	0	0
470	1	1	12.271213840163993	-118.80169316782755	144.17002749758845	0	0	0
471	1	1	12.360784744106796	-119.66539631922117	143.67404975671735	0	0	0
472	1	1	12.4503556480496	-120.52677721822397	144.17404975671735	0	0	0
473	1	1	12.539926551992403	-121.39048036961759	143.67807201584625	0	0	0
474	1	1	12.629497455935207	-122.25186126862039	144.17807201584625	0	0	0
475	1	1	12.71906835987801	-123.11556442001401	143.68209427497516	0	0	0
476	1	1	12.808639263820814	-123.9769453190168	144.18209427497516	0	0	0