bb400nuc1bl200bn3d30tot600

601 atoms
600 bonds
600 angles

1 atom types
1 bond types
1 angle types

-1000 1000 xlo xhi
-1000 1000 ylo yhi
-1000 1000 zlo zhi

Masses

1 1

Atoms

1	1	1	0.0	0.0	0.0	0	0	0
2	1	1	0.0	0.0	1.0	0	0	0
3	1	1	0.0	-0.49999999999999994	1.8660254037844388	0	0	0
4	1	1	0.0	0.0	2.7320508075688776	0	0	0
5	1	1	0.0	-0.49999999999999994	3.5980762113533165	0	0	0
6	1	1	0.0	0.0	4.464101615137755	0	0	0
7	1	1	0.0	-0.49999999999999994	5.330127018922194	0	0	0
8	1	1	0.0	0.0	6.196152422706632	0	0	0
9	1	1	0.0	-0.49999999999999994	7.06217782649107	0	0	0
10	1	1	0.0	0.0	7.928203230275509	0	0	0
11	1	1	0.0	-0.49999999999999994	8.794228634059948	0	0	0
12	1	1	0.0	0.0	9.660254037844387	0	0	0
13	1	1	0.0	-0.49999999999999994	10.526279441628827	0	0	0
14	1	1	0.0	0.0	11.392304845413266	0	0	0
15	1	1	0.0	-0.49999999999999994	12.258330249197705	0	0	0
16	1	1	0.0	0.0	13.124355652982144	0	0	0
17	1	1	0.0	-0.49999999999999994	13.990381056766584	0	0	0
18	1	1	0.0	0.0	14.856406460551023	0	0	0
19	1	1	0.0	-0.49999999999999994	15.722431864335462	0	0	0
20	1	1	0.0	0.0	16.5884572681199	0	0	0
21	1	1	0.0	-0.49999999999999994	17.454482671904337	0	0	0
22	1	1	0.0	0.0	18.320508075688775	0	0	0
23	1	1	0.0	-0.49999999999999994	19.186533479473212	0	0	0
24	1	1	0.0	0.0	20.05255888325765	0	0	0
25	1	1	0.0	-0.49999999999999994	20.918584287042087	0	0	0
26	1	1	0.0	0.0	21.784609690826525	0	0	0
27	1	1	0.0	-0.49999999999999994	22.650635094610962	0	0	0
28	1	1	0.0	0.0	23.5166604983954	0	0	0
29	1	1	0.0	-0.49999999999999994	24.382685902179837	0	0	0
30	1	1	0.0	0.0	25.248711305964274	0	0	0
31	1	1	0.0	-0.49999999999999994	26.114736709748712	0	0	0
32	1	1	0.0	0.0	26.98076211353315	0	0	0
33	1	1	0.0	-0.49999999999999994	27.846787517317587	0	0	0
34	1	1	0.0	0.0	28.712812921102024	0	0	0
35	1	1	0.0	-0.49999999999999994	29.578838324886462	0	0	0
36	1	1	0.0	0.0	30.4448637286709	0	0	0
37	1	1	0.0	-0.49999999999999994	31.310889132455337	0	0	0
38	1	1	0.0	0.0	32.17691453623978	0	0	0
39	1	1	0.0	-0.49999999999999994	33.04293994002422	0	0	0
40	1	1	0.0	0.0	33.90896534380866	0	0	0
41	1	1	0.0	-0.49999999999999994	34.7749907475931	0	0	0
42	1	1	0.0	0.0	35.64101615137754	0	0	0
43	1	1	0.0	-0.49999999999999994	36.50704155516198	0	0	0
44	1	1	0.0	0.0	37.373066958946424	0	0	0
45	1	1	0.0	-0.49999999999999994	38.239092362730865	0	0	0
46	1	1	0.0	0.0	39.105117766515306	0	0	0
47	1	1	0.0	-0.49999999999999994	39.97114317029975	0	0	0
48	1	1	0.0	0.0	40.83716857408419	0	0	0
49	1	1	0.0	-0.49999999999999994	41.70319397786863	0	0	0
50	1	1	0.0	0.0	42.56921938165307	0	0	0
51	1	1	0.0	-0.49999999999999994	43.43524478543751	0	0	0
52	1	1	0.0	0.0	44.30127018922195	0	0	0
53	1	1	0.0	-0.49999999999999994	45.16729559300639	0	0	0
54	1	1	0.0	0.0	46.033320996790835	0	0	0
55	1	1	0.0	-0.49999999999999994	46.899346400575276	0	0	0
56	1	1	0.0	0.0	47.76537180435972	0	0	0
57	1	1	0.0	-0.49999999999999994	48.63139720814416	0	0	0
58	1	1	0.0	0.0	49.4974226119286	0	0	0
59	1	1	0.0	-0.49999999999999994	50.36344801571304	0	0	0
60	1	1	0.0	0.0	51.22947341949748	0	0	0
61	1	1	0.0	-0.49999999999999994	52.09549882328192	0	0	0
62	1	1	0.0	0.0	52.96152422706636	0	0	0
63	1	1	0.0	-0.49999999999999994	53.827549630850804	0	0	0
64	1	1	0.0	0.0	54.693575034635245	0	0	0
65	1	1	0.0	-0.49999999999999994	55.559600438419686	0	0	0
66	1	1	0.0	0.0	56.42562584220413	0	0	0
67	1	1	0.0	-0.49999999999999994	57.29165124598857	0	0	0
68	1	1	0.0	0.0	58.15767664977301	0	0	0
69	1	1	0.0	-0.49999999999999994	59.02370205355745	0	0	0
70	1	1	0.0	0.0	59.88972745734189	0	0	0
71	1	1	0.0	-0.49999999999999994	60.75575286112633	0	0	0
72	1	1	0.0	0.0	61.62177826491077	0	0	0
73	1	1	0.0	-0.49999999999999994	62.487803668695214	0	0	0
74	1	1	0.0	0.0	63.353829072479655	0	0	0
75	1	1	0.0	-0.49999999999999994	64.21985447626409	0	0	0
76	1	1	0.0	0.0	65.08587988004852	0	0	0
77	1	1	0.0	-0.49999999999999994	65.95190528383296	0	0	0
78	1	1	0.0	0.0	66.81793068761739	0	0	0
79	1	1	0.0	-0.49999999999999994	67.68395609140183	0	0	0
80	1	1	0.0	0.0	68.54998149518626	0	0	0
81	1	1	0.0	-0.49999999999999994	69.41600689897069	0	0	0
82	1	1	0.0	0.0	70.28203230275513	0	0	0
83	1	1	0.0	-0.49999999999999994	71.14805770653956	0	0	0
84	1	1	0.0	0.0	72.014083110324	0	0	0
85	1	1	0.0	-0.49999999999999994	72.88010851410843	0	0	0
86	1	1	0.0	0.0	73.74613391789286	0	0	0
87	1	1	0.0	-0.49999999999999994	74.6121593216773	0	0	0
88	1	1	0.0	0.0	75.47818472546173	0	0	0
89	1	1	0.0	-0.49999999999999994	76.34421012924616	0	0	0
90	1	1	0.0	0.0	77.2102355330306	0	0	0
91	1	1	0.0	-0.49999999999999994	78.07626093681503	0	0	0
92	1	1	0.0	0.0	78.94228634059947	0	0	0
93	1	1	0.0	-0.49999999999999994	79.8083117443839	0	0	0
94	1	1	0.0	0.0	80.67433714816833	0	0	0
95	1	1	0.0	-0.49999999999999994	81.54036255195277	0	0	0
96	1	1	0.0	0.0	82.4063879557372	0	0	0
97	1	1	0.0	-0.49999999999999994	83.27241335952164	0	0	0
98	1	1	0.0	0.0	84.13843876330607	0	0	0
99	1	1	0.0	-0.49999999999999994	85.0044641670905	0	0	0
100	1	1	0.0	0.0	85.87048957087494	0	0	0
101	1	1	0.0	-0.49999999999999994	86.73651497465937	0	0	0
102	1	1	0.0	0.0	87.6025403784438	0	0	0
103	1	1	0.0	-0.49999999999999994	88.46856578222824	0	0	0
104	1	1	0.0	0.0	89.33459118601267	0	0	0
105	1	1	0.0	-0.49999999999999994	90.20061658979711	0	0	0
106	1	1	0.0	0.0	91.06664199358154	0	0	0
107	1	1	0.0	-0.49999999999999994	91.93266739736598	0	0	0
108	1	1	0.0	0.0	92.79869280115041	0	0	0
109	1	1	0.0	-0.49999999999999994	93.66471820493484	0	0	0
110	1	1	0.0	0.0	94.53074360871928	0	0	0
111	1	1	0.0	-0.49999999999999994	95.39676901250371	0	0	0
112	1	1	0.0	0.0	96.26279441628814	0	0	0
113	1	1	0.0	-0.49999999999999994	97.12881982007258	0	0	0
114	1	1	0.0	0.0	97.99484522385701	0	0	0
115	1	1	0.0	-0.49999999999999994	98.86087062764145	0	0	0
116	1	1	0.0	0.0	99.72689603142588	0	0	0
117	1	1	0.0	-0.49999999999999994	100.59292143521031	0	0	0
118	1	1	0.0	0.0	101.45894683899475	0	0	0
119	1	1	0.0	-0.49999999999999994	102.32497224277918	0	0	0
120	1	1	0.0	0.0	103.19099764656362	0	0	0
121	1	1	0.0	-0.49999999999999994	104.05702305034805	0	0	0
122	1	1	0.0	0.0	104.92304845413248	0	0	0
123	1	1	0.0	-0.49999999999999994	105.78907385791692	0	0	0
124	1	1	0.0	0.0	106.65509926170135	0	0	0
125	1	1	0.0	-0.49999999999999994	107.52112466548579	0	0	0
126	1	1	0.0	0.0	108.38715006927022	0	0	0
127	1	1	0.0	-0.49999999999999994	109.25317547305465	0	0	0
128	1	1	0.0	0.0	110.11920087683909	0	0	0
129	1	1	0.0	-0.49999999999999994	110.98522628062352	0	0	0
130	1	1	0.0	0.0	111.85125168440796	0	0	0
131	1	1	0.0	-0.49999999999999994	112.71727708819239	0	0	0
132	1	1	0.0	0.0	113.58330249197682	0	0	0
133	1	1	0.0	-0.49999999999999994	114.44932789576126	0	0	0
134	1	1	0.0	0.0	115.31535329954569	0	0	0
135	1	1	0.0	-0.49999999999999994	116.18137870333013	0	0	0
136	1	1	0.0	0.0	117.04740410711456	0	0	0
137	1	1	0.0	-0.49999999999999994	117.913429510899	0	0	0
138	1	1	0.0	0.0	118.77945491468343	0	0	0
139	1	1	0.0	-0.49999999999999994	119.64548031846786	0	0	0
140	1	1	0.0	0.0	120.5115057222523	0	0	0
141	1	1	0.0	-0.49999999999999994	121.37753112603673	0	0	0
142	1	1	0.0	0.0	122.24355652982116	0	0	0
143	1	1	0.0	-0.49999999999999994	123.1095819336056	0	0	0
144	1	1	0.0	0.0	123.97560733739003	0	0	0
145	1	1	0.0	-0.49999999999999994	124.84163274117446	0	0	0
146	1	1	0.0	0.0	125.7076581449589	0	0	0
147	1	1	0.0	-0.49999999999999994	126.57368354874333	0	0	0
148	1	1	0.0	0.0	127.43970895252777	0	0	0
149	1	1	0.0	-0.49999999999999994	128.3057343563122	0	0	0
150	1	1	0.0	0.0	129.17175976009665	0	0	0
151	1	1	0.0	-0.49999999999999994	130.0377851638811	0	0	0
152	1	1	0.0	0.0	130.90381056766554	0	0	0
153	1	1	0.0	-0.49999999999999994	131.76983597145	0	0	0
154	1	1	0.0	0.0	132.63586137523444	0	0	0
155	1	1	0.0	-0.49999999999999994	133.5018867790189	0	0	0
156	1	1	0.0	0.0	134.36791218280334	0	0	0
157	1	1	0.0	-0.49999999999999994	135.23393758658779	0	0	0
158	1	1	0.0	0.0	136.09996299037223	0	0	0
159	1	1	0.0	-0.49999999999999994	136.96598839415668	0	0	0
160	1	1	0.0	0.0	137.83201379794113	0	0	0
161	1	1	0.0	-0.49999999999999994	138.69803920172558	0	0	0
162	1	1	0.0	0.0	139.56406460551003	0	0	0
163	1	1	0.0	-0.49999999999999994	140.43009000929447	0	0	0
164	1	1	0.0	0.0	141.29611541307892	0	0	0
165	1	1	0.0	-0.49999999999999994	142.16214081686337	0	0	0
166	1	1	0.0	0.0	143.02816622064782	0	0	0
167	1	1	0.0	-0.49999999999999994	143.89419162443227	0	0	0
168	1	1	0.0	0.0	144.76021702821672	0	0	0
169	1	1	0.0	-0.49999999999999994	145.62624243200116	0	0	0
170	1	1	0.0	0.0	146.4922678357856	0	0	0
171	1	1	0.0	-0.49999999999999994	147.35829323957006	0	0	0
172	1	1	0.0	0.0	148.2243186433545	0	0	0
173	1	1	0.0	-0.49999999999999994	149.09034404713896	0	0	0
174	1	1	0.0	0.0	149.9563694509234	0	0	0
175	1	1	0.0	-0.49999999999999994	150.82239485470785	0	0	0
176	1	1	0.0	0.0	151.6884202584923	0	0	0
177	1	1	0.0	-0.49999999999999994	152.55444566227675	0	0	0
178	1	1	0.0	0.0	153.4204710660612	0	0	0
179	1	1	0.0	-0.49999999999999994	154.28649646984564	0	0	0
180	1	1	0.0	0.0	155.1525218736301	0	0	0
181	1	1	0.0	-0.49999999999999994	156.01854727741454	0	0	0
182	1	1	0.0	0.0	156.884572681199	0	0	0
183	1	1	0.0	-0.49999999999999994	157.75059808498344	0	0	0
184	1	1	0.0	0.0	158.61662348876789	0	0	0
185	1	1	0.0	-0.49999999999999994	159.48264889255233	0	0	0
186	1	1	0.0	0.0	160.34867429633678	0	0	0
187	1	1	0.0	-0.49999999999999994	161.21469970012123	0	0	0
188	1	1	0.0	0.0	162.08072510390568	0	0	0
189	1	1	0.0	-0.49999999999999994	162.94675050769013	0	0	0
190	1	1	0.0	0.0	163.81277591147457	0	0	0
191	1	1	0.0	-0.49999999999999994	164.67880131525902	0	0	0
192	1	1	0.0	0.0	165.54482671904347	0	0	0
193	1	1	0.0	-0.49999999999999994	166.41085212282792	0	0	0
194	1	1	0.0	0.0	167.27687752661237	0	0	0
195	1	1	0.0	-0.49999999999999994	168.14290293039682	0	0	0
196	1	1	0.0	0.0	169.00892833418126	0	0	0
197	1	1	0.0	-0.49999999999999994	169.8749537379657	0	0	0
198	1	1	0.0	0.0	170.74097914175016	0	0	0
199	1	1	0.0	-0.49999999999999994	171.6070045455346	0	0	0
200	1	1	0.0	0.0	172.47302994931906	0	0	0
201	1	1	0.0	-0.49999999999999994	173.3390553531035	0	0	0
202	1	1	-0.7449304117812006	-1.1325036093981709	173.5512294931437	0	0	0
203	1	1	-1.489860823562395	-1.7863548731424257	173.41872588374554	0	0	0
204	1	1	-2.234791235343589	-2.2280319968464934	173.91872588374554	0	0	0
205	1	1	-2.979721647124783	-2.8818832605907483	173.78622227434738	0	0	0
206	1	1	-3.7246520589059773	-3.323560384294816	174.28622227434738	0	0	0
207	1	1	-4.469582470687172	-3.977411648039071	174.15371866494922	0	0	0
208	1	1	-5.214512882468366	-4.419088771743138	174.65371866494922	0	0	0
209	1	1	-5.95944329424956	-5.0729400354873935	174.52121505555107	0	0	0
210	1	1	-6.704373706030754	-5.514617159191461	175.02121505555107	0	0	0
211	1	1	-7.449304117811948	-6.168468422935716	174.8887114461529	0	0	0
212	1	1	-8.194234529593142	-6.610145546639783	175.3887114461529	0	0	0
213	1	1	-8.939164941374337	-7.263996810384038	175.25620783675475	0	0	0
214	1	1	-9.68409535315553	-7.7056739340881055	175.75620783675475	0	0	0
215	1	1	-10.429025764936725	-8.35952519783236	175.6237042273566	0	0	0
216	1	1	-11.173956176717919	-8.801202321536428	176.1237042273566	0	0	0
217	1	1	-11.918886588499113	-9.455053585280682	175.99120061795844	0	0	0
218	1	1	-12.663817000280307	-9.89673070898475	176.49120061795844	0	0	0
219	1	1	-13.408747412061501	-10.550581972729004	176.35869700856028	0	0	0
220	1	1	-14.153677823842695	-10.992259096433072	176.85869700856028	0	0	0
221	1	1	-14.89860823562389	-11.646110360177326	176.72619339916213	0	0	0
222	1	1	-15.643538647405084	-12.087787483881394	177.22619339916213	0	0	0
223	1	1	-16.388469059186278	-12.741638747625649	177.09368978976397	0	0	0
224	1	1	-17.133399470967472	-13.183315871329716	177.59368978976397	0	0	0
225	1	1	-17.878329882748666	-13.83716713507397	177.46118618036581	0	0	0
226	1	1	-18.62326029452986	-14.278844258778038	177.96118618036581	0	0	0
227	1	1	-19.368190706311054	-14.932695522522293	177.82868257096766	0	0	0
228	1	1	-20.11312111809225	-15.37437264622636	178.32868257096766	0	0	0
229	1	1	-20.858051529873443	-16.028223909970617	178.1961789615695	0	0	0
230	1	1	-21.602981941654637	-16.469901033674684	178.6961789615695	0	0	0
231	1	1	-22.34791235343583	-17.12375229741894	178.56367535217134	0	0	0
232	1	1	-23.092842765217025	-17.565429421123007	179.06367535217134	0	0	0
233	1	1	-23.83777317699822	-18.21928068486726	178.9311717427732	0	0	0
234	1	1	-24.582703588779413	-18.66095780857133	179.4311717427732	0	0	0
235	1	1	-25.327634000560607	-19.314809072315583	179.29866813337503	0	0	0
236	1	1	-26.0725644123418	-19.75648619601965	179.79866813337503	0	0	0
237	1	1	-26.817494824122996	-20.410337459763905	179.66616452397687	0	0	0
238	1	1	-27.56242523590419	-20.852014583467973	180.16616452397687	0	0	0
239	1	1	-28.307355647685384	-21.505865847212227	180.03366091457872	0	0	0
240	1	1	-29.052286059466578	-21.947542970916295	180.53366091457872	0	0	0
241	1	1	-29.797216471247772	-22.60139423466055	180.40115730518056	0	0	0
242	1	1	-30.542146883028966	-23.043071358364617	180.90115730518056	0	0	0
243	1	1	-31.28707729481016	-23.696922622108872	180.7686536957824	0	0	0
244	1	1	-32.03200770659136	-24.13859974581294	181.2686536957824	0	0	0
245	1	1	-32.776938118372556	-24.792451009557194	181.13615008638425	0	0	0
246	1	1	-33.52186853015375	-25.23412813326126	181.63615008638425	0	0	0
247	1	1	-34.26679894193495	-25.887979397005516	181.5036464769861	0	0	0
248	1	1	-35.01172935371615	-26.329656520709584	182.0036464769861	0	0	0
249	1	1	-35.756659765497346	-26.98350778445384	181.87114286758793	0	0	0
250	1	1	-36.501590177278544	-27.425184908157906	182.37114286758793	0	0	0
251	1	1	-37.24652058905974	-28.07903617190216	182.23863925818978	0	0	0
252	1	1	-37.99145100084094	-28.520713295606228	182.73863925818978	0	0	0
253	1	1	-38.73638141262214	-29.174564559350483	182.60613564879162	0	0	0
254	1	1	-39.481311824403335	-29.61624168305455	183.10613564879162	0	0	0
255	1	1	-40.22624223618453	-30.270092946798805	182.97363203939346	0	0	0
256	1	1	-40.97117264796573	-30.711770070502872	183.47363203939346	0	0	0
257	1	1	-41.71610305974693	-31.365621334247127	183.3411284299953	0	0	0
258	1	1	-42.461033471528125	-31.807298457951195	183.8411284299953	0	0	0
259	1	1	-43.20596388330932	-32.46114972169545	183.70862482059715	0	0	0
260	1	1	-43.95089429509052	-32.90282684539952	184.20862482059715	0	0	0
261	1	1	-44.69582470687172	-33.556678109143775	184.076121211199	0	0	0
262	1	1	-45.440755118652916	-33.99835523284784	184.576121211199	0	0	0
263	1	1	-46.185685530434114	-34.6522064965921	184.44361760180084	0	0	0
264	1	1	-46.93061594221531	-35.09388362029617	184.94361760180084	0	0	0
265	1	1	-47.67554635399651	-35.747734884040426	184.81111399240268	0	0	0
266	1	1	-48.42047676577771	-36.189412007744494	185.31111399240268	0	0	0
267	1	1	-49.165407177558905	-36.84326327148875	185.17861038300452	0	0	0
268	1	1	-49.9103375893401	-37.28494039519282	185.67861038300452	0	0	0
269	1	1	-50.6552680011213	-37.93879165893708	185.54610677360637	0	0	0
270	1	1	-51.4001984129025	-38.380468782641145	186.04610677360637	0	0	0
271	1	1	-52.145128824683695	-39.0343200463854	185.9136031642082	0	0	0
272	1	1	-52.89005923646489	-39.47599717008947	186.4136031642082	0	0	0
273	1	1	-53.63498964824609	-40.12984843383373	186.28109955481005	0	0	0
274	1	1	-54.37992006002729	-40.5715255575378	186.78109955481005	0	0	0
275	1	1	-55.124850471808486	-41.225376821282055	186.6485959454119	0	0	0
276	1	1	-55.869780883589684	-41.66705394498612	187.1485959454119	0	0	0
277	1	1	-56.61471129537088	-42.32090520873038	187.01609233601374	0	0	0
278	1	1	-57.35964170715208	-42.76258233243445	187.51609233601374	0	0	0
279	1	1	-58.10457211893328	-43.416433596178706	187.38358872661559	0	0	0
280	1	1	-58.849502530714474	-43.858110719882774	187.88358872661559	0	0	0
281	1	1	-59.59443294249567	-44.51196198362703	187.75108511721743	0	0	0
282	1	1	-60.33936335427687	-44.9536391073311	188.25108511721743	0	0	0
283	1	1	-61.08429376605807	-45.60749037107536	188.11858150781927	0	0	0
284	1	1	-61.829224177839265	-46.049167494779425	188.61858150781927	0	0	0
285	1	1	-62.57415458962046	-46.70301875852368	188.48607789842112	0	0	0
286	1	1	-63.31908500140166	-47.14469588222775	188.98607789842112	0	0	0
287	1	1	-64.06401541318286	-47.79854714597201	188.85357428902296	0	0	0
288	1	1	-64.80894582496406	-48.24022426967608	189.35357428902296	0	0	0
289	1	1	-65.55387623674525	-48.894075533420335	189.2210706796248	0	0	0
290	1	1	-66.29880664852645	-49.3357526571244	189.7210706796248	0	0	0
291	1	1	-67.04373706030765	-49.98960392086866	189.58856707022665	0	0	0
292	1	1	-67.78866747208885	-50.43128104457273	190.08856707022665	0	0	0
293	1	1	-68.53359788387004	-51.085132308316986	189.9560634608285	0	0	0
294	1	1	-69.27852829565124	-51.526809432021054	190.4560634608285	0	0	0
295	1	1	-70.02345870743244	-52.18066069576531	190.32355985143033	0	0	0
296	1	1	-70.76838911921364	-52.62233781946938	190.82355985143033	0	0	0
297	1	1	-71.51331953099483	-53.27618908321364	190.69105624203218	0	0	0
298	1	1	-72.25824994277603	-53.717866206917705	191.19105624203218	0	0	0
299	1	1	-73.00318035455723	-54.37171747066196	191.05855263263402	0	0	0
300	1	1	-73.74811076633843	-54.81339459436603	191.55855263263402	0	0	0
301	1	1	-74.49304117811963	-55.46724585811029	191.42604902323586	0	0	0
302	1	1	-75.23797158990082	-55.90892298181436	191.92604902323586	0	0	0
303	1	1	-75.98290200168202	-56.562774245558614	191.7935454138377	0	0	0
304	1	1	-76.72783241346322	-57.00445136926268	192.2935454138377	0	0	0
305	1	1	-77.47276282524442	-57.65830263300694	192.16104180443955	0	0	0
306	1	1	-78.21769323702561	-58.09997975671101	192.66104180443955	0	0	0
307	1	1	-78.96262364880681	-58.753831020455266	192.5285381950414	0	0	0
308	1	1	-79.70755406058801	-59.195508144159334	193.0285381950414	0	0	0
309	1	1	-80.4524844723692	-59.84935940790359	192.89603458564324	0	0	0
310	1	1	-81.1974148841504	-60.29103653160766	193.39603458564324	0	0	0
311	1	1	-81.9423452959316	-60.94488779535192	193.26353097624508	0	0	0
312	1	1	-82.6872757077128	-61.386564919055985	193.76353097624508	0	0	0
313	1	1	-83.432206119494	-62.04041618280024	193.63102736684692	0	0	0
314	1	1	-84.1771365312752	-62.48209330650431	194.13102736684692	0	0	0
315	1	1	-84.9220669430564	-63.13594457024857	193.99852375744877	0	0	0
316	1	1	-85.66699735483759	-63.577621693952636	194.49852375744877	0	0	0
317	1	1	-86.41192776661879	-64.2314729576969	194.3660201480506	0	0	0
318	1	1	-87.15685817839999	-64.67315008140096	194.8660201480506	0	0	0
319	1	1	-87.90178859018118	-65.32700134514522	194.73351653865245	0	0	0
320	1	1	-88.64671900196238	-65.76867846884929	195.23351653865245	0	0	0
321	1	1	-89.39164941374358	-66.42252973259355	195.1010129292543	0	0	0
322	1	1	-90.13657982552478	-66.86420685629761	195.6010129292543	0	0	0
323	1	1	-90.88151023730597	-67.51805812004187	195.46850931985614	0	0	0
324	1	1	-91.62644064908717	-67.95973524374594	195.96850931985614	0	0	0
325	1	1	-92.37137106086837	-68.6135865074902	195.83600571045798	0	0	0
326	1	1	-93.11630147264957	-69.05526363119426	196.33600571045798	0	0	0
327	1	1	-93.86123188443077	-69.70911489493852	196.20350210105983	0	0	0
328	1	1	-94.60616229621196	-70.15079201864259	196.70350210105983	0	0	0
329	1	1	-95.35109270799316	-70.80464328238685	196.57099849166167	0	0	0
330	1	1	-96.09602311977436	-71.24632040609092	197.07099849166167	0	0	0
331	1	1	-96.84095353155556	-71.90017166983517	196.9384948822635	0	0	0
332	1	1	-97.58588394333675	-72.34184879353924	197.4384948822635	0	0	0
333	1	1	-98.33081435511795	-72.9957000572835	197.30599127286536	0	0	0
334	1	1	-99.07574476689915	-73.43737718098757	197.80599127286536	0	0	0
335	1	1	-99.82067517868035	-74.09122844473183	197.6734876634672	0	0	0
336	1	1	-100.56560559046154	-74.5329055684359	198.1734876634672	0	0	0
337	1	1	-101.31053600224274	-75.18675683218015	198.04098405406904	0	0	0
338	1	1	-102.05546641402394	-75.62843395588422	198.54098405406904	0	0	0
339	1	1	-102.80039682580514	-76.28228521962848	198.4084804446709	0	0	0
340	1	1	-103.54532723758633	-76.72396234333254	198.9084804446709	0	0	0
341	1	1	-104.29025764936753	-77.3778136070768	198.77597683527273	0	0	0
342	1	1	-105.03518806114873	-77.81949073078087	199.27597683527273	0	0	0
343	1	1	-105.78011847292993	-78.47334199452513	199.14347322587457	0	0	0
344	1	1	-106.52504888471113	-78.9150191182292	199.64347322587457	0	0	0
345	1	1	-107.26997929649232	-79.56887038197345	199.51096961647642	0	0	0
346	1	1	-108.01490970827352	-80.01054750567752	200.01096961647642	0	0	0
347	1	1	-108.75984012005472	-80.66439876942178	199.87846600707826	0	0	0
348	1	1	-109.50477053183592	-81.10607589312585	200.37846600707826	0	0	0
349	1	1	-110.24970094361711	-81.7599271568701	200.2459623976801	0	0	0
350	1	1	-110.99463135539831	-82.20160428057417	200.7459623976801	0	0	0
351	1	1	-111.73956176717951	-82.85545554431843	200.61345878828195	0	0	0
352	1	1	-112.4844921789607	-83.2971326680225	201.11345878828195	0	0	0
353	1	1	-113.2294225907419	-83.95098393176676	200.9809551788838	0	0	0
354	1	1	-113.9743530025231	-84.39266105547082	201.4809551788838	0	0	0
355	1	1	-114.7192834143043	-85.04651231921508	201.34845156948563	0	0	0
356	1	1	-115.4642138260855	-85.48818944291915	201.84845156948563	0	0	0
357	1	1	-116.2091442378667	-86.14204070666341	201.71594796008748	0	0	0
358	1	1	-116.9540746496479	-86.58371783036748	202.21594796008748	0	0	0
359	1	1	-117.69900506142909	-87.23756909411173	202.08344435068932	0	0	0
360	1	1	-118.44393547321029	-87.6792462178158	202.58344435068932	0	0	0
361	1	1	-119.18886588499149	-88.33309748156006	202.45094074129116	0	0	0
362	1	1	-119.93379629677268	-88.77477460526413	202.95094074129116	0	0	0
363	1	1	-120.67872670855388	-89.42862586900839	202.818437131893	0	0	0
364	1	1	-121.42365712033508	-89.87030299271245	203.318437131893	0	0	0
365	1	1	-122.16858753211628	-90.52415425645671	203.18593352249485	0	0	0
366	1	1	-122.91351794389747	-90.96583138016078	203.68593352249485	0	0	0
367	1	1	-123.65844835567867	-91.61968264390504	203.5534299130967	0	0	0
368	1	1	-124.40337876745987	-92.0613597676091	204.0534299130967	0	0	0
369	1	1	-125.14830917924107	-92.71521103135336	203.92092630369854	0	0	0
370	1	1	-125.89323959102227	-93.15688815505743	204.42092630369854	0	0	0
371	1	1	-126.63817000280346	-93.81073941880169	204.28842269430038	0	0	0
372	1	1	-127.38310041458466	-94.25241654250576	204.78842269430038	0	0	0
373	1	1	-128.12803082636586	-94.90626780625001	204.65591908490222	0	0	0
374	1	1	-128.87296123814704	-95.34794492995408	205.15591908490222	0	0	0
375	1	1	-129.61789164992823	-96.00179619369834	205.02341547550407	0	0	0
376	1	1	-130.3628220617094	-96.44347331740241	205.52341547550407	0	0	0
377	1	1	-131.1077524734906	-97.09732458114667	205.3909118661059	0	0	0
378	1	1	-131.85268288527178	-97.53900170485073	205.8909118661059	0	0	0
379	1	1	-132.59761329705296	-98.19285296859499	205.75840825670775	0	0	0
380	1	1	-133.34254370883414	-98.63453009229906	206.25840825670775	0	0	0
381	1	1	-134.08747412061533	-99.28838135604332	206.1259046473096	0	0	0
382	1	1	-134.8324045323965	-99.73005847974738	206.6259046473096	0	0	0
383	1	1	-135.5773349441777	-100.38390974349164	206.49340103791144	0	0	0
384	1	1	-136.32226535595888	-100.82558686719571	206.99340103791144	0	0	0
385	1	1	-137.06719576774006	-101.47943813093997	206.86089742851328	0	0	0
386	1	1	-137.81212617952124	-101.92111525464404	207.36089742851328	0	0	0
387	1	1	-138.55705659130243	-102.5749665183883	207.22839381911513	0	0	0
388	1	1	-139.3019870030836	-103.01664364209236	207.72839381911513	0	0	0
389	1	1	-140.0469174148648	-103.67049490583662	207.59589020971697	0	0	0
390	1	1	-140.79184782664598	-104.11217202954069	208.09589020971697	0	0	0
391	1	1	-141.53677823842716	-104.76602329328495	207.9633866003188	0	0	0
392	1	1	-142.28170865020834	-105.20770041698901	208.4633866003188	0	0	0
393	1	1	-143.02663906198953	-105.86155168073327	208.33088299092066	0	0	0
394	1	1	-143.7715694737707	-106.30322880443734	208.83088299092066	0	0	0
395	1	1	-144.5164998855519	-106.9570800681816	208.6983793815225	0	0	0
396	1	1	-145.26143029733308	-107.39875719188566	209.1983793815225	0	0	0
397	1	1	-146.00636070911426	-108.05260845562992	209.06587577212434	0	0	0
398	1	1	-146.75129112089544	-108.49428557933399	209.56587577212434	0	0	0
399	1	1	-147.49622153267663	-109.14813684307825	209.4333721627262	0	0	0
400	1	1	-148.2411519444578	-109.58981396678232	209.9333721627262	0	0	0
401	1	1	-148.986082356239	-110.24366523052657	209.80086855332803	0	0	0
402	1	1	0.74493041178122	-0.36749639060185774	173.99290661684773	0	0	0
403	1	1	1.4898608235624335	-0.5796705306420558	174.62541022624586	0	0	0
404	1	1	2.234791235343647	-0.13799340693801648	175.12541022624586	0	0	0
405	1	1	2.979721647124861	-0.3501675469782145	175.757913835644	0	0	0
406	1	1	3.7246520589060745	0.09150957672582477	176.257913835644	0	0	0
407	1	1	4.469582470687288	-0.12066456331437322	176.89041744504212	0	0	0
408	1	1	5.214512882468502	0.3210125603896661	177.39041744504212	0	0	0
409	1	1	5.9594432942497155	0.10883842034946808	178.02292105444025	0	0	0
410	1	1	6.704373706030929	0.5505155440535073	178.52292105444025	0	0	0
411	1	1	7.449304117812143	0.33834140401330937	179.15542466383837	0	0	0
412	1	1	8.194234529593356	0.7800185277173486	179.65542466383837	0	0	0
413	1	1	8.93916494137457	0.5678443876771506	180.2879282732365	0	0	0
414	1	1	9.684095353155783	1.00952151138119	180.7879282732365	0	0	0
415	1	1	10.429025764936997	0.797347371340992	181.42043188263463	0	0	0
416	1	1	11.17395617671821	1.2390244950450313	181.92043188263463	0	0	0
417	1	1	11.918886588499424	1.0268503550048333	182.55293549203276	0	0	0
418	1	1	12.663817000280638	1.4685274787088727	183.05293549203276	0	0	0
419	1	1	13.408747412061851	1.2563533386686747	183.6854391014309	0	0	0
420	1	1	14.153677823843065	1.698030462372714	184.1854391014309	0	0	0
421	1	1	14.898608235624279	1.485856322332516	184.81794271082902	0	0	0
422	1	1	15.643538647405492	1.9275334460365554	185.31794271082902	0	0	0
423	1	1	16.388469059186704	1.7153593059963574	185.95044632022714	0	0	0
424	1	1	17.133399470967916	2.1570364297003968	186.45044632022714	0	0	0
425	1	1	17.878329882749128	1.9448622896601988	187.08294992962527	0	0	0
426	1	1	18.62326029453034	2.386539413364238	187.58294992962527	0	0	0
427	1	1	19.36819070631155	2.1743652733240397	188.2154535390234	0	0	0
428	1	1	20.113121118092764	2.616042397028079	188.7154535390234	0	0	0
429	1	1	20.858051529873975	2.403868256987881	189.34795714842153	0	0	0
430	1	1	21.602981941655187	2.84554538069192	189.84795714842153	0	0	0
431	1	1	22.3479123534364	2.633371240651722	190.48046075781966	0	0	0
432	1	1	23.09284276521761	3.0750483643557613	190.98046075781966	0	0	0
433	1	1	23.837773176998823	2.862874224315563	191.61296436721778	0	0	0
434	1	1	24.582703588780035	3.3045513480196025	192.11296436721778	0	0	0
435	1	1	25.327634000561247	3.0923772079794043	192.7454679766159	0	0	0
436	1	1	26.07256441234246	3.5340543316834436	193.2454679766159	0	0	0
437	1	1	26.81749482412367	3.3218801916432454	193.87797158601404	0	0	0
438	1	1	27.562425235904882	3.7635573153472848	194.37797158601404	0	0	0
439	1	1	28.307355647686094	3.5513831753070866	195.01047519541217	0	0	0
440	1	1	29.052286059467306	3.993060299011126	195.51047519541217	0	0	0
441	1	1	29.797216471248518	3.7808861589709277	196.1429788048103	0	0	0
442	1	1	30.54214688302973	4.222563282674967	196.6429788048103	0	0	0
443	1	1	31.287077294810942	4.010389142634769	197.27548241420843	0	0	0
444	1	1	32.032007706592154	4.452066266338808	197.77548241420843	0	0	0
445	1	1	32.776938118373366	4.23989212629861	198.40798602360655	0	0	0
446	1	1	33.52186853015458	4.681569250002649	198.90798602360655	0	0	0
447	1	1	34.26679894193579	4.469395109962451	199.54048963300468	0	0	0
448	1	1	35.011729353717	4.9110722336664905	200.04048963300468	0	0	0
449	1	1	35.75665976549821	4.698898093626292	200.6729932424028	0	0	0
450	1	1	36.501590177279425	5.140575217330332	201.1729932424028	0	0	0
451	1	1	37.24652058906064	4.928401077290133	201.80549685180094	0	0	0
452	1	1	37.99145100084185	5.370078200994173	202.30549685180094	0	0	0
453	1	1	38.73638141262306	5.157904060953975	202.93800046119907	0	0	0
454	1	1	39.48131182440427	5.599581184658014	203.43800046119907	0	0	0
455	1	1	40.226242236185485	5.387407044617816	204.0705040705972	0	0	0
456	1	1	40.971172647966696	5.829084168321855	204.5705040705972	0	0	0
457	1	1	41.71610305974791	5.616910028281657	205.20300767999532	0	0	0
458	1	1	42.46103347152912	6.058587151985696	205.70300767999532	0	0	0
459	1	1	43.20596388331033	5.846413011945498	206.33551128939345	0	0	0
460	1	1	43.950894295091544	6.288090135649537	206.83551128939345	0	0	0
461	1	1	44.695824706872756	6.075915995609339	207.46801489879158	0	0	0
462	1	1	45.44075511865397	6.5175931193133785	207.96801489879158	0	0	0
463	1	1	46.18568553043518	6.30541897927318	208.6005185081897	0	0	0
464	1	1	46.93061594221639	6.74709610297722	209.1005185081897	0	0	0
465	1	1	47.6755463539976	6.534921962937021	209.73302211758784	0	0	0
466	1	1	48.420476765778815	6.976599086641061	210.23302211758784	0	0	0
467	1	1	49.16540717756003	6.764424946600863	210.86552572698596	0	0	0
468	1	1	49.91033758934124	7.206102070304902	211.36552572698596	0	0	0
469	1	1	50.65526800112245	6.993927930264704	211.9980293363841	0	0	0
470	1	1	51.40019841290366	7.435605053968743	212.4980293363841	0	0	0
471	1	1	52.145128824684875	7.223430913928545	213.13053294578222	0	0	0
472	1	1	52.89005923646609	7.665108037632584	213.63053294578222	0	0	0
473	1	1	53.6349896482473	7.452933897592386	214.26303655518035	0	0	0
474	1	1	54.37992006002851	7.894611021296425	214.76303655518035	0	0	0
475	1	1	55.12485047180972	7.682436881256227	215.39554016457848	0	0	0
476	1	1	55.869780883590934	8.124114004960266	215.89554016457848	0	0	0
477	1	1	56.614711295372146	7.911939864920067	216.5280437739766	0	0	0
478	1	1	57.35964170715336	8.353616988624106	217.0280437739766	0	0	0
479	1	1	58.10457211893457	8.141442848583909	217.66054738337473	0	0	0
480	1	1	58.84950253071578	8.583119972287948	218.16054738337473	0	0	0
481	1	1	59.594432942496994	8.37094583224775	218.79305099277286	0	0	0
482	1	1	60.339363354278206	8.81262295595179	219.29305099277286	0	0	0
483	1	1	61.08429376605942	8.600448815911593	219.925554602171	0	0	0
484	1	1	61.82922417784063	9.042125939615632	220.425554602171	0	0	0
485	1	1	62.57415458962184	8.829951799575435	221.05805821156912	0	0	0