bb600nuc1bl300bn3d30tot900

901 atoms
900 bonds
900 angles

1 atom types
1 bond types
1 angle types

-1000 1000 xlo xhi
-1000 1000 ylo yhi
-1000 1000 zlo zhi

Masses

1 1

Atoms

1	1	1	0.0	0.0	0.0	0	0	0
2	1	1	0.0	0.0	1.0	0	0	0
3	1	1	0.0	-0.49999999999999994	1.8660254037844388	0	0	0
4	1	1	0.0	0.0	2.7320508075688776	0	0	0
5	1	1	0.0	-0.49999999999999994	3.5980762113533165	0	0	0
6	1	1	0.0	0.0	4.464101615137755	0	0	0
7	1	1	0.0	-0.49999999999999994	5.330127018922194	0	0	0
8	1	1	0.0	0.0	6.196152422706632	0	0	0
9	1	1	0.0	-0.49999999999999994	7.06217782649107	0	0	0
10	1	1	0.0	0.0	7.928203230275509	0	0	0
11	1	1	0.0	-0.49999999999999994	8.794228634059948	0	0	0
12	1	1	0.0	0.0	9.660254037844387	0	0	0
13	1	1	0.0	-0.49999999999999994	10.526279441628827	0	0	0
14	1	1	0.0	0.0	11.392304845413266	0	0	0
15	1	1	0.0	-0.49999999999999994	12.258330249197705	0	0	0
16	1	1	0.0	0.0	13.124355652982144	0	0	0
17	1	1	0.0	-0.49999999999999994	13.990381056766584	0	0	0
18	1	1	0.0	0.0	14.856406460551023	0	0	0
19	1	1	0.0	-0.49999999999999994	15.722431864335462	0	0	0
20	1	1	0.0	0.0	16.5884572681199	0	0	0
21	1	1	0.0	-0.49999999999999994	17.454482671904337	0	0	0
22	1	1	0.0	0.0	18.320508075688775	0	0	0
23	1	1	0.0	-0.49999999999999994	19.186533479473212	0	0	0
24	1	1	0.0	0.0	20.05255888325765	0	0	0
25	1	1	0.0	-0.49999999999999994	20.918584287042087	0	0	0
26	1	1	0.0	0.0	21.784609690826525	0	0	0
27	1	1	0.0	-0.49999999999999994	22.650635094610962	0	0	0
28	1	1	0.0	0.0	23.5166604983954	0	0	0
29	1	1	0.0	-0.49999999999999994	24.382685902179837	0	0	0
30	1	1	0.0	0.0	25.248711305964274	0	0	0
31	1	1	0.0	-0.49999999999999994	26.114736709748712	0	0	0
32	1	1	0.0	0.0	26.98076211353315	0	0	0
33	1	1	0.0	-0.49999999999999994	27.846787517317587	0	0	0
34	1	1	0.0	0.0	28.712812921102024	0	0	0
35	1	1	0.0	-0.49999999999999994	29.578838324886462	0	0	0
36	1	1	0.0	0.0	30.4448637286709	0	0	0
37	1	1	0.0	-0.49999999999999994	31.310889132455337	0	0	0
38	1	1	0.0	0.0	32.17691453623978	0	0	0
39	1	1	0.0	-0.49999999999999994	33.04293994002422	0	0	0
40	1	1	0.0	0.0	33.90896534380866	0	0	0
41	1	1	0.0	-0.49999999999999994	34.7749907475931	0	0	0
42	1	1	0.0	0.0	35.64101615137754	0	0	0
43	1	1	0.0	-0.49999999999999994	36.50704155516198	0	0	0
44	1	1	0.0	0.0	37.373066958946424	0	0	0
45	1	1	0.0	-0.49999999999999994	38.239092362730865	0	0	0
46	1	1	0.0	0.0	39.105117766515306	0	0	0
47	1	1	0.0	-0.49999999999999994	39.97114317029975	0	0	0
48	1	1	0.0	0.0	40.83716857408419	0	0	0
49	1	1	0.0	-0.49999999999999994	41.70319397786863	0	0	0
50	1	1	0.0	0.0	42.56921938165307	0	0	0
51	1	1	0.0	-0.49999999999999994	43.43524478543751	0	0	0
52	1	1	0.0	0.0	44.30127018922195	0	0	0
53	1	1	0.0	-0.49999999999999994	45.16729559300639	0	0	0
54	1	1	0.0	0.0	46.033320996790835	0	0	0
55	1	1	0.0	-0.49999999999999994	46.899346400575276	0	0	0
56	1	1	0.0	0.0	47.76537180435972	0	0	0
57	1	1	0.0	-0.49999999999999994	48.63139720814416	0	0	0
58	1	1	0.0	0.0	49.4974226119286	0	0	0
59	1	1	0.0	-0.49999999999999994	50.36344801571304	0	0	0
60	1	1	0.0	0.0	51.22947341949748	0	0	0
61	1	1	0.0	-0.49999999999999994	52.09549882328192	0	0	0
62	1	1	0.0	0.0	52.96152422706636	0	0	0
63	1	1	0.0	-0.49999999999999994	53.827549630850804	0	0	0
64	1	1	0.0	0.0	54.693575034635245	0	0	0
65	1	1	0.0	-0.49999999999999994	55.559600438419686	0	0	0
66	1	1	0.0	0.0	56.42562584220413	0	0	0
67	1	1	0.0	-0.49999999999999994	57.29165124598857	0	0	0
68	1	1	0.0	0.0	58.15767664977301	0	0	0
69	1	1	0.0	-0.49999999999999994	59.02370205355745	0	0	0
70	1	1	0.0	0.0	59.88972745734189	0	0	0
71	1	1	0.0	-0.49999999999999994	60.75575286112633	0	0	0
72	1	1	0.0	0.0	61.62177826491077	0	0	0
73	1	1	0.0	-0.49999999999999994	62.487803668695214	0	0	0
74	1	1	0.0	0.0	63.353829072479655	0	0	0
75	1	1	0.0	-0.49999999999999994	64.21985447626409	0	0	0
76	1	1	0.0	0.0	65.08587988004852	0	0	0
77	1	1	0.0	-0.49999999999999994	65.95190528383296	0	0	0
78	1	1	0.0	0.0	66.81793068761739	0	0	0
79	1	1	0.0	-0.49999999999999994	67.68395609140183	0	0	0
80	1	1	0.0	0.0	68.54998149518626	0	0	0
81	1	1	0.0	-0.49999999999999994	69.41600689897069	0	0	0
82	1	1	0.0	0.0	70.28203230275513	0	0	0
83	1	1	0.0	-0.49999999999999994	71.14805770653956	0	0	0
84	1	1	0.0	0.0	72.014083110324	0	0	0
85	1	1	0.0	-0.49999999999999994	72.88010851410843	0	0	0
86	1	1	0.0	0.0	73.74613391789286	0	0	0
87	1	1	0.0	-0.49999999999999994	74.6121593216773	0	0	0
88	1	1	0.0	0.0	75.47818472546173	0	0	0
89	1	1	0.0	-0.49999999999999994	76.34421012924616	0	0	0
90	1	1	0.0	0.0	77.2102355330306	0	0	0
91	1	1	0.0	-0.49999999999999994	78.07626093681503	0	0	0
92	1	1	0.0	0.0	78.94228634059947	0	0	0
93	1	1	0.0	-0.49999999999999994	79.8083117443839	0	0	0
94	1	1	0.0	0.0	80.67433714816833	0	0	0
95	1	1	0.0	-0.49999999999999994	81.54036255195277	0	0	0
96	1	1	0.0	0.0	82.4063879557372	0	0	0
97	1	1	0.0	-0.49999999999999994	83.27241335952164	0	0	0
98	1	1	0.0	0.0	84.13843876330607	0	0	0
99	1	1	0.0	-0.49999999999999994	85.0044641670905	0	0	0
100	1	1	0.0	0.0	85.87048957087494	0	0	0
101	1	1	0.0	-0.49999999999999994	86.73651497465937	0	0	0
102	1	1	0.0	0.0	87.6025403784438	0	0	0
103	1	1	0.0	-0.49999999999999994	88.46856578222824	0	0	0
104	1	1	0.0	0.0	89.33459118601267	0	0	0
105	1	1	0.0	-0.49999999999999994	90.20061658979711	0	0	0
106	1	1	0.0	0.0	91.06664199358154	0	0	0
107	1	1	0.0	-0.49999999999999994	91.93266739736598	0	0	0
108	1	1	0.0	0.0	92.79869280115041	0	0	0
109	1	1	0.0	-0.49999999999999994	93.66471820493484	0	0	0
110	1	1	0.0	0.0	94.53074360871928	0	0	0
111	1	1	0.0	-0.49999999999999994	95.39676901250371	0	0	0
112	1	1	0.0	0.0	96.26279441628814	0	0	0
113	1	1	0.0	-0.49999999999999994	97.12881982007258	0	0	0
114	1	1	0.0	0.0	97.99484522385701	0	0	0
115	1	1	0.0	-0.49999999999999994	98.86087062764145	0	0	0
116	1	1	0.0	0.0	99.72689603142588	0	0	0
117	1	1	0.0	-0.49999999999999994	100.59292143521031	0	0	0
118	1	1	0.0	0.0	101.45894683899475	0	0	0
119	1	1	0.0	-0.49999999999999994	102.32497224277918	0	0	0
120	1	1	0.0	0.0	103.19099764656362	0	0	0
121	1	1	0.0	-0.49999999999999994	104.05702305034805	0	0	0
122	1	1	0.0	0.0	104.92304845413248	0	0	0
123	1	1	0.0	-0.49999999999999994	105.78907385791692	0	0	0
124	1	1	0.0	0.0	106.65509926170135	0	0	0
125	1	1	0.0	-0.49999999999999994	107.52112466548579	0	0	0
126	1	1	0.0	0.0	108.38715006927022	0	0	0
127	1	1	0.0	-0.49999999999999994	109.25317547305465	0	0	0
128	1	1	0.0	0.0	110.11920087683909	0	0	0
129	1	1	0.0	-0.49999999999999994	110.98522628062352	0	0	0
130	1	1	0.0	0.0	111.85125168440796	0	0	0
131	1	1	0.0	-0.49999999999999994	112.71727708819239	0	0	0
132	1	1	0.0	0.0	113.58330249197682	0	0	0
133	1	1	0.0	-0.49999999999999994	114.44932789576126	0	0	0
134	1	1	0.0	0.0	115.31535329954569	0	0	0
135	1	1	0.0	-0.49999999999999994	116.18137870333013	0	0	0
136	1	1	0.0	0.0	117.04740410711456	0	0	0
137	1	1	0.0	-0.49999999999999994	117.913429510899	0	0	0
138	1	1	0.0	0.0	118.77945491468343	0	0	0
139	1	1	0.0	-0.49999999999999994	119.64548031846786	0	0	0
140	1	1	0.0	0.0	120.5115057222523	0	0	0
141	1	1	0.0	-0.49999999999999994	121.37753112603673	0	0	0
142	1	1	0.0	0.0	122.24355652982116	0	0	0
143	1	1	0.0	-0.49999999999999994	123.1095819336056	0	0	0
144	1	1	0.0	0.0	123.97560733739003	0	0	0
145	1	1	0.0	-0.49999999999999994	124.84163274117446	0	0	0
146	1	1	0.0	0.0	125.7076581449589	0	0	0
147	1	1	0.0	-0.49999999999999994	126.57368354874333	0	0	0
148	1	1	0.0	0.0	127.43970895252777	0	0	0
149	1	1	0.0	-0.49999999999999994	128.3057343563122	0	0	0
150	1	1	0.0	0.0	129.17175976009665	0	0	0
151	1	1	0.0	-0.49999999999999994	130.0377851638811	0	0	0
152	1	1	0.0	0.0	130.90381056766554	0	0	0
153	1	1	0.0	-0.49999999999999994	131.76983597145	0	0	0
154	1	1	0.0	0.0	132.63586137523444	0	0	0
155	1	1	0.0	-0.49999999999999994	133.5018867790189	0	0	0
156	1	1	0.0	0.0	134.36791218280334	0	0	0
157	1	1	0.0	-0.49999999999999994	135.23393758658779	0	0	0
158	1	1	0.0	0.0	136.09996299037223	0	0	0
159	1	1	0.0	-0.49999999999999994	136.96598839415668	0	0	0
160	1	1	0.0	0.0	137.83201379794113	0	0	0
161	1	1	0.0	-0.49999999999999994	138.69803920172558	0	0	0
162	1	1	0.0	0.0	139.56406460551003	0	0	0
163	1	1	0.0	-0.49999999999999994	140.43009000929447	0	0	0
164	1	1	0.0	0.0	141.29611541307892	0	0	0
165	1	1	0.0	-0.49999999999999994	142.16214081686337	0	0	0
166	1	1	0.0	0.0	143.02816622064782	0	0	0
167	1	1	0.0	-0.49999999999999994	143.89419162443227	0	0	0
168	1	1	0.0	0.0	144.76021702821672	0	0	0
169	1	1	0.0	-0.49999999999999994	145.62624243200116	0	0	0
170	1	1	0.0	0.0	146.4922678357856	0	0	0
171	1	1	0.0	-0.49999999999999994	147.35829323957006	0	0	0
172	1	1	0.0	0.0	148.2243186433545	0	0	0
173	1	1	0.0	-0.49999999999999994	149.09034404713896	0	0	0
174	1	1	0.0	0.0	149.9563694509234	0	0	0
175	1	1	0.0	-0.49999999999999994	150.82239485470785	0	0	0
176	1	1	0.0	0.0	151.6884202584923	0	0	0
177	1	1	0.0	-0.49999999999999994	152.55444566227675	0	0	0
178	1	1	0.0	0.0	153.4204710660612	0	0	0
179	1	1	0.0	-0.49999999999999994	154.28649646984564	0	0	0
180	1	1	0.0	0.0	155.1525218736301	0	0	0
181	1	1	0.0	-0.49999999999999994	156.01854727741454	0	0	0
182	1	1	0.0	0.0	156.884572681199	0	0	0
183	1	1	0.0	-0.49999999999999994	157.75059808498344	0	0	0
184	1	1	0.0	0.0	158.61662348876789	0	0	0
185	1	1	0.0	-0.49999999999999994	159.48264889255233	0	0	0
186	1	1	0.0	0.0	160.34867429633678	0	0	0
187	1	1	0.0	-0.49999999999999994	161.21469970012123	0	0	0
188	1	1	0.0	0.0	162.08072510390568	0	0	0
189	1	1	0.0	-0.49999999999999994	162.94675050769013	0	0	0
190	1	1	0.0	0.0	163.81277591147457	0	0	0
191	1	1	0.0	-0.49999999999999994	164.67880131525902	0	0	0
192	1	1	0.0	0.0	165.54482671904347	0	0	0
193	1	1	0.0	-0.49999999999999994	166.41085212282792	0	0	0
194	1	1	0.0	0.0	167.27687752661237	0	0	0
195	1	1	0.0	-0.49999999999999994	168.14290293039682	0	0	0
196	1	1	0.0	0.0	169.00892833418126	0	0	0
197	1	1	0.0	-0.49999999999999994	169.8749537379657	0	0	0
198	1	1	0.0	0.0	170.74097914175016	0	0	0
199	1	1	0.0	-0.49999999999999994	171.6070045455346	0	0	0
200	1	1	0.0	0.0	172.47302994931906	0	0	0
201	1	1	0.0	-0.49999999999999994	173.3390553531035	0	0	0
202	1	1	0.0	0.0	174.20508075688795	0	0	0
203	1	1	0.0	-0.49999999999999994	175.0711061606724	0	0	0
204	1	1	0.0	0.0	175.93713156445685	0	0	0
205	1	1	0.0	-0.49999999999999994	176.8031569682413	0	0	0
206	1	1	0.0	0.0	177.66918237202574	0	0	0
207	1	1	0.0	-0.49999999999999994	178.5352077758102	0	0	0
208	1	1	0.0	0.0	179.40123317959464	0	0	0
209	1	1	0.0	-0.49999999999999994	180.2672585833791	0	0	0
210	1	1	0.0	0.0	181.13328398716354	0	0	0
211	1	1	0.0	-0.49999999999999994	181.99930939094799	0	0	0
212	1	1	0.0	0.0	182.86533479473243	0	0	0
213	1	1	0.0	-0.49999999999999994	183.73136019851688	0	0	0
214	1	1	0.0	0.0	184.59738560230133	0	0	0
215	1	1	0.0	-0.49999999999999994	185.46341100608578	0	0	0
216	1	1	0.0	0.0	186.32943640987023	0	0	0
217	1	1	0.0	-0.49999999999999994	187.19546181365467	0	0	0
218	1	1	0.0	0.0	188.06148721743912	0	0	0
219	1	1	0.0	-0.49999999999999994	188.92751262122357	0	0	0
220	1	1	0.0	0.0	189.79353802500802	0	0	0
221	1	1	0.0	-0.49999999999999994	190.65956342879247	0	0	0
222	1	1	0.0	0.0	191.52558883257691	0	0	0
223	1	1	0.0	-0.49999999999999994	192.39161423636136	0	0	0
224	1	1	0.0	0.0	193.2576396401458	0	0	0
225	1	1	0.0	-0.49999999999999994	194.12366504393026	0	0	0
226	1	1	0.0	0.0	194.9896904477147	0	0	0
227	1	1	0.0	-0.49999999999999994	195.85571585149916	0	0	0
228	1	1	0.0	0.0	196.7217412552836	0	0	0
229	1	1	0.0	-0.49999999999999994	197.58776665906805	0	0	0
230	1	1	0.0	0.0	198.4537920628525	0	0	0
231	1	1	0.0	-0.49999999999999994	199.31981746663695	0	0	0
232	1	1	0.0	0.0	200.1858428704214	0	0	0
233	1	1	0.0	-0.49999999999999994	201.05186827420584	0	0	0
234	1	1	0.0	0.0	201.9178936779903	0	0	0
235	1	1	0.0	-0.49999999999999994	202.78391908177474	0	0	0
236	1	1	0.0	0.0	203.6499444855592	0	0	0
237	1	1	0.0	-0.49999999999999994	204.51596988934364	0	0	0
238	1	1	0.0	0.0	205.38199529312809	0	0	0
239	1	1	0.0	-0.49999999999999994	206.24802069691253	0	0	0
240	1	1	0.0	0.0	207.11404610069698	0	0	0
241	1	1	0.0	-0.49999999999999994	207.98007150448143	0	0	0
242	1	1	0.0	0.0	208.84609690826588	0	0	0
243	1	1	0.0	-0.49999999999999994	209.71212231205033	0	0	0
244	1	1	0.0	0.0	210.57814771583477	0	0	0
245	1	1	0.0	-0.49999999999999994	211.44417311961922	0	0	0
246	1	1	0.0	0.0	212.31019852340367	0	0	0
247	1	1	0.0	-0.49999999999999994	213.17622392718812	0	0	0
248	1	1	0.0	0.0	214.04224933097257	0	0	0
249	1	1	0.0	-0.49999999999999994	214.90827473475701	0	0	0
250	1	1	0.0	0.0	215.77430013854146	0	0	0
251	1	1	0.0	-0.49999999999999994	216.6403255423259	0	0	0
252	1	1	0.0	0.0	217.50635094611036	0	0	0
253	1	1	0.0	-0.49999999999999994	218.3723763498948	0	0	0
254	1	1	0.0	0.0	219.23840175367926	0	0	0
255	1	1	0.0	-0.49999999999999994	220.1044271574637	0	0	0
256	1	1	0.0	0.0	220.97045256124815	0	0	0
257	1	1	0.0	-0.49999999999999994	221.8364779650326	0	0	0
258	1	1	0.0	0.0	222.70250336881705	0	0	0
259	1	1	0.0	-0.49999999999999994	223.5685287726015	0	0	0
260	1	1	0.0	0.0	224.43455417638594	0	0	0
261	1	1	0.0	-0.49999999999999994	225.3005795801704	0	0	0
262	1	1	0.0	0.0	226.16660498395484	0	0	0
263	1	1	0.0	-0.49999999999999994	227.0326303877393	0	0	0
264	1	1	0.0	0.0	227.89865579152374	0	0	0
265	1	1	0.0	-0.49999999999999994	228.76468119530819	0	0	0
266	1	1	0.0	0.0	229.63070659909263	0	0	0
267	1	1	0.0	-0.49999999999999994	230.49673200287708	0	0	0
268	1	1	0.0	0.0	231.36275740666153	0	0	0
269	1	1	0.0	-0.49999999999999994	232.22878281044598	0	0	0
270	1	1	0.0	0.0	233.09480821423043	0	0	0
271	1	1	0.0	-0.49999999999999994	233.96083361801487	0	0	0
272	1	1	0.0	0.0	234.82685902179932	0	0	0
273	1	1	0.0	-0.49999999999999994	235.69288442558377	0	0	0
274	1	1	0.0	0.0	236.55890982936822	0	0	0
275	1	1	0.0	-0.49999999999999994	237.42493523315267	0	0	0
276	1	1	0.0	0.0	238.29096063693711	0	0	0
277	1	1	0.0	-0.49999999999999994	239.15698604072156	0	0	0
278	1	1	0.0	0.0	240.023011444506	0	0	0
279	1	1	0.0	-0.49999999999999994	240.88903684829046	0	0	0
280	1	1	0.0	0.0	241.7550622520749	0	0	0
281	1	1	0.0	-0.49999999999999994	242.62108765585936	0	0	0
282	1	1	0.0	0.0	243.4871130596438	0	0	0
283	1	1	0.0	-0.49999999999999994	244.35313846342825	0	0	0
284	1	1	0.0	0.0	245.2191638672127	0	0	0
285	1	1	0.0	-0.49999999999999994	246.08518927099715	0	0	0
286	1	1	0.0	0.0	246.9512146747816	0	0	0
287	1	1	0.0	-0.49999999999999994	247.81724007856604	0	0	0
288	1	1	0.0	0.0	248.6832654823505	0	0	0
289	1	1	0.0	-0.49999999999999994	249.54929088613494	0	0	0
290	1	1	0.0	0.0	250.4153162899194	0	0	0
291	1	1	0.0	-0.49999999999999994	251.28134169370384	0	0	0
292	1	1	0.0	0.0	252.14736709748829	0	0	0
293	1	1	0.0	-0.49999999999999994	253.01339250127273	0	0	0
294	1	1	0.0	0.0	253.87941790505718	0	0	0
295	1	1	0.0	-0.49999999999999994	254.74544330884163	0	0	0
296	1	1	0.0	0.0	255.61146871262608	0	0	0
297	1	1	0.0	-0.49999999999999994	256.4774941164105	0	0	0
298	1	1	0.0	0.0	257.34351952019495	0	0	0
299	1	1	0.0	-0.49999999999999994	258.20954492397937	0	0	0
300	1	1	0.0	0.0	259.0755703277638	0	0	0
301	1	1	0.0	-0.49999999999999994	259.9415957315482	0	0	0
302	1	1	0.4395301472206259	-0.10377253442527012	260.7477080346477	0	0	0
303	1	1	0.8790602944412589	-0.16368563511018966	261.6439355002224	0	0	0
304	1	1	1.3185904416618919	0.5825135673044215	262.1439355002224	0	0	0
305	1	1	1.7581205888825249	0.522600466619502	263.04016296579715	0	0	0
306	1	1	2.197650736103158	1.268799669034113	263.54016296579715	0	0	0
307	1	1	2.637180883323791	1.2088865683491934	264.4363904313719	0	0	0
308	1	1	3.076711030544424	1.9550857707638045	264.9363904313719	0	0	0
309	1	1	3.516241177765057	1.895172670078885	265.8326178969466	0	0	0
310	1	1	3.95577132498569	2.641371872493496	266.3326178969466	0	0	0
311	1	1	4.395301472206323	2.5814587718085766	267.2288453625213	0	0	0
312	1	1	4.834831619426956	3.3276579742231878	267.7288453625213	0	0	0
313	1	1	5.27436176664759	3.2677448735382684	268.62507282809605	0	0	0
314	1	1	5.713891913868223	4.01394407595288	269.12507282809605	0	0	0
315	1	1	6.153422061088857	3.9540309752679605	270.0213002936708	0	0	0
316	1	1	6.59295220830949	4.700230177682572	270.5213002936708	0	0	0
317	1	1	7.0324823555301235	4.640317076997652	271.4175277592455	0	0	0
318	1	1	7.472012502750757	5.386516279412263	271.9175277592455	0	0	0
319	1	1	7.91154264997139	5.326603178727344	272.8137552248202	0	0	0
320	1	1	8.351072797192023	6.072802381141955	273.3137552248202	0	0	0
321	1	1	8.790602944412656	6.012889280457035	274.20998269039495	0	0	0
322	1	1	9.23013309163329	6.759088482871646	274.70998269039495	0	0	0
323	1	1	9.669663238853923	6.699175382186726	275.6062101559697	0	0	0
324	1	1	10.109193386074557	7.445374584601337	276.1062101559697	0	0	0
325	1	1	10.54872353329519	7.385461483916417	277.0024376215444	0	0	0
326	1	1	10.988253680515824	8.131660686331028	277.5024376215444	0	0	0
327	1	1	11.427783827736457	8.071747585646108	278.3986650871191	0	0	0
328	1	1	11.86731397495709	8.81794678806072	278.8986650871191	0	0	0
329	1	1	12.306844122177724	8.7580336873758	279.79489255269385	0	0	0
330	1	1	12.746374269398357	9.504232889790412	280.29489255269385	0	0	0
331	1	1	13.18590441661899	9.444319789105492	281.1911200182686	0	0	0
332	1	1	13.625434563839624	10.190518991520104	281.6911200182686	0	0	0
333	1	1	14.064964711060258	10.130605890835184	282.5873474838433	0	0	0
334	1	1	14.504494858280891	10.876805093249796	283.0873474838433	0	0	0
335	1	1	14.944025005501524	10.816891992564877	283.983574949418	0	0	0
336	1	1	15.383555152722158	11.563091194979489	284.483574949418	0	0	0
337	1	1	15.823085299942791	11.503178094294569	285.37980241499275	0	0	0
338	1	1	16.262615447163423	12.24937729670918	285.87980241499275	0	0	0
339	1	1	16.702145594384056	12.189464196024261	286.7760298805675	0	0	0
340	1	1	17.14167574160469	12.935663398438873	287.2760298805675	0	0	0
341	1	1	17.581205888825323	12.875750297753953	288.1722573461422	0	0	0
342	1	1	18.020736036045957	13.621949500168565	288.6722573461422	0	0	0
343	1	1	18.46026618326659	13.562036399483645	289.5684848117169	0	0	0
344	1	1	18.899796330487224	14.308235601898257	290.0684848117169	0	0	0
345	1	1	19.339326477707857	14.248322501213337	290.96471227729165	0	0	0
346	1	1	19.77885662492849	14.99452170362795	291.46471227729165	0	0	0
347	1	1	20.218386772149124	14.93460860294303	292.3609397428664	0	0	0
348	1	1	20.657916919369757	15.680807805357642	292.8609397428664	0	0	0
349	1	1	21.09744706659039	15.620894704672722	293.7571672084411	0	0	0
350	1	1	21.536977213811024	16.367093907087334	294.2571672084411	0	0	0
351	1	1	21.976507361031658	16.307180806402414	295.15339467401583	0	0	0
352	1	1	22.41603750825229	17.053380008817026	295.65339467401583	0	0	0
353	1	1	22.855567655472925	16.993466908132106	296.54962213959055	0	0	0
354	1	1	23.295097802693558	17.739666110546718	297.04962213959055	0	0	0
355	1	1	23.73462794991419	17.6797530098618	297.9458496051653	0	0	0
356	1	1	24.174158097134825	18.42595221227641	298.4458496051653	0	0	0
357	1	1	24.61368824435546	18.36603911159149	299.34207707074	0	0	0
358	1	1	25.05321839157609	19.112238314006103	299.84207707074	0	0	0
359	1	1	25.492748538796725	19.052325213321183	300.73830453631473	0	0	0
360	1	1	25.93227868601736	19.798524415735795	301.23830453631473	0	0	0
361	1	1	26.371808833237992	19.738611315050875	302.13453200188945	0	0	0
362	1	1	26.811338980458626	20.484810517465487	302.63453200188945	0	0	0
363	1	1	27.25086912767926	20.424897416780567	303.5307594674642	0	0	0
364	1	1	27.690399274899892	21.17109661919518	304.0307594674642	0	0	0
365	1	1	28.129929422120526	21.11118351851026	304.9269869330389	0	0	0
366	1	1	28.56945956934116	21.85738272092487	305.4269869330389	0	0	0
367	1	1	29.008989716561793	21.79746962023995	306.32321439861363	0	0	0
368	1	1	29.448519863782426	22.543668822654563	306.82321439861363	0	0	0
369	1	1	29.88805001100306	22.483755721969644	307.71944186418835	0	0	0
370	1	1	30.327580158223693	23.229954924384256	308.21944186418835	0	0	0
371	1	1	30.767110305444326	23.170041823699336	309.1156693297631	0	0	0
372	1	1	31.20664045266496	23.916241026113948	309.6156693297631	0	0	0
373	1	1	31.646170599885593	23.856327925429028	310.5118967953378	0	0	0
374	1	1	32.08570074710622	24.60252712784364	311.0118967953378	0	0	0
375	1	1	32.52523089432685	24.54261402715872	311.90812426091253	0	0	0
376	1	1	32.96476104154748	25.288813229573332	312.40812426091253	0	0	0
377	1	1	33.40429118876811	25.228900128888412	313.30435172648725	0	0	0
378	1	1	33.84382133598874	25.975099331303024	313.80435172648725	0	0	0
379	1	1	34.28335148320937	25.915186230618104	314.700579192062	0	0	0
380	1	1	34.72288163043	26.661385433032716	315.200579192062	0	0	0
381	1	1	35.16241177765063	26.601472332347797	316.0968066576367	0	0	0
382	1	1	35.60194192487126	27.34767153476241	316.5968066576367	0	0	0
383	1	1	36.04147207209189	27.28775843407749	317.49303412321143	0	0	0
384	1	1	36.48100221931252	28.0339576364921	317.99303412321143	0	0	0
385	1	1	36.92053236653315	27.97404453580718	318.88926158878616	0	0	0
386	1	1	37.36006251375378	28.720243738221793	319.38926158878616	0	0	0
387	1	1	37.79959266097441	28.660330637536873	320.2854890543609	0	0	0
388	1	1	38.23912280819504	29.406529839951485	320.7854890543609	0	0	0
389	1	1	38.67865295541567	29.346616739266565	321.6817165199356	0	0	0
390	1	1	39.1181831026363	30.092815941681177	322.1817165199356	0	0	0
391	1	1	39.55771324985693	30.032902840996258	323.07794398551033	0	0	0
392	1	1	39.99724339707756	30.77910204341087	323.57794398551033	0	0	0
393	1	1	40.43677354429819	30.71918894272595	324.47417145108506	0	0	0
394	1	1	40.87630369151882	31.46538814514056	324.97417145108506	0	0	0
395	1	1	41.31583383873945	31.405475044455642	325.8703989166598	0	0	0
396	1	1	41.75536398596008	32.15167424687025	326.3703989166598	0	0	0
397	1	1	42.19489413318071	32.091761146185334	327.2666263822345	0	0	0
398	1	1	42.63442428040134	32.83796034859994	327.7666263822345	0	0	0
399	1	1	43.07395442762197	32.778047247915026	328.66285384780923	0	0	0
400	1	1	43.5134845748426	33.524246450329635	329.16285384780923	0	0	0
401	1	1	43.95301472206323	33.46433334964472	330.05908131338396	0	0	0
402	1	1	44.39254486928386	34.21053255205933	330.55908131338396	0	0	0
403	1	1	44.83207501650449	34.15061945137441	331.4553087789587	0	0	0
404	1	1	45.27160516372512	34.89681865378902	331.9553087789587	0	0	0
405	1	1	45.71113531094575	34.8369055531041	332.8515362445334	0	0	0
406	1	1	46.15066545816638	35.58310475551871	333.3515362445334	0	0	0
407	1	1	46.59019560538701	35.523191654833795	334.24776371010813	0	0	0
408	1	1	47.02972575260764	36.2693908572484	334.74776371010813	0	0	0
409	1	1	47.46925589982827	36.20947775656349	335.64399117568286	0	0	0
410	1	1	47.9087860470489	36.955676958978096	336.14399117568286	0	0	0
411	1	1	48.34831619426953	36.89576385829318	337.0402186412576	0	0	0
412	1	1	48.78784634149016	37.64196306070779	337.5402186412576	0	0	0
413	1	1	49.22737648871079	37.58204996002287	338.4364461068323	0	0	0
414	1	1	49.66690663593142	38.32824916243748	338.9364461068323	0	0	0
415	1	1	50.10643678315205	38.268336061752564	339.83267357240703	0	0	0
416	1	1	50.54596693037268	39.01453526416717	340.33267357240703	0	0	0
417	1	1	50.98549707759331	38.954622163482256	341.22890103798176	0	0	0
418	1	1	51.42502722481394	39.700821365896864	341.72890103798176	0	0	0
419	1	1	51.86455737203457	39.64090826521195	342.6251285035565	0	0	0
420	1	1	52.3040875192552	40.38710746762656	343.1251285035565	0	0	0
421	1	1	52.74361766647583	40.32719436694164	344.0213559691312	0	0	0
422	1	1	53.18314781369646	41.07339356935625	344.5213559691312	0	0	0
423	1	1	53.62267796091709	41.01348046867133	345.41758343470593	0	0	0
424	1	1	54.06220810813772	41.75967967108594	345.91758343470593	0	0	0
425	1	1	54.50173825535835	41.699766570401025	346.81381090028066	0	0	0
426	1	1	54.94126840257898	42.44596577281563	347.31381090028066	0	0	0
427	1	1	55.38079854979961	42.38605267213072	348.2100383658554	0	0	0
428	1	1	55.82032869702024	43.132251874545325	348.7100383658554	0	0	0
429	1	1	56.25985884424087	43.07233877386041	349.6062658314301	0	0	0
430	1	1	56.6993889914615	43.81853797627502	350.1062658314301	0	0	0
431	1	1	57.13891913868213	43.7586248755901	351.00249329700483	0	0	0
432	1	1	57.57844928590276	44.50482407800471	351.50249329700483	0	0	0
433	1	1	58.01797943312339	44.44491097731979	352.39872076257956	0	0	0
434	1	1	58.457509580344016	45.1911101797344	352.89872076257956	0	0	0
435	1	1	58.897039727564646	45.131197079049485	353.7949482281543	0	0	0
436	1	1	59.336569874785276	45.877396281464094	354.2949482281543	0	0	0
437	1	1	59.776100022005906	45.81748318077918	355.191175693729	0	0	0
438	1	1	60.215630169226536	46.563682383193786	355.691175693729	0	0	0
439	1	1	60.655160316447166	46.50376928250887	356.58740315930373	0	0	0
440	1	1	61.094690463667796	47.24996848492348	357.08740315930373	0	0	0
441	1	1	61.534220610888426	47.19005538423856	357.98363062487846	0	0	0
442	1	1	61.973750758109055	47.93625458665317	358.48363062487846	0	0	0
443	1	1	62.413280905329685	47.876341485968254	359.3798580904532	0	0	0
444	1	1	62.852811052550315	48.62254068838286	359.8798580904532	0	0	0
445	1	1	63.292341199770945	48.562627587697946	360.7760855560279	0	0	0
446	1	1	63.731871346991575	49.308826790112555	361.2760855560279	0	0	0
447	1	1	64.1714014942122	49.24891368942764	362.17231302160263	0	0	0
448	1	1	64.61093164143284	49.99511289184225	362.67231302160263	0	0	0
449	1	1	65.05046178865348	49.93519979115733	363.56854048717736	0	0	0
450	1	1	65.48999193587412	50.68139899357194	364.06854048717736	0	0	0
451	1	1	65.92952208309475	50.62148589288702	364.9647679527521	0	0	0
452	1	1	66.36905223031539	51.36768509530163	365.4647679527521	0	0	0
453	1	1	66.80858237753603	51.307771994616715	366.3609954183268	0	0	0
454	1	1	67.24811252475666	52.05397119703132	366.8609954183268	0	0	0
455	1	1	67.6876426719773	51.99405809634641	367.75722288390153	0	0	0
456	1	1	68.12717281919794	52.740257298761016	368.25722288390153	0	0	0
457	1	1	68.56670296641857	52.6803441980761	369.15345034947626	0	0	0
458	1	1	69.00623311363921	53.42654340049071	369.65345034947626	0	0	0
459	1	1	69.44576326085985	53.36663029980579	370.549677815051	0	0	0
460	1	1	69.88529340808049	54.1128295022204	371.049677815051	0	0	0
461	1	1	70.32482355530112	54.052916401535484	371.9459052806257	0	0	0
462	1	1	70.76435370252176	54.79911560395009	372.4459052806257	0	0	0
463	1	1	71.2038838497424	54.739202503265176	373.34213274620043	0	0	0
464	1	1	71.64341399696303	55.485401705679784	373.84213274620043	0	0	0
465	1	1	72.08294414418367	55.42548860499487	374.73836021177516	0	0	0
466	1	1	72.52247429140431	56.17168780740948	375.23836021177516	0	0	0
467	1	1	72.96200443862494	56.11177470672456	376.1345876773499	0	0	0
468	1	1	73.40153458584558	56.85797390913917	376.6345876773499	0	0	0
469	1	1	73.84106473306622	56.79806080845425	377.5308151429246	0	0	0
470	1	1	74.28059488028686	57.54426001086886	378.0308151429246	0	0	0
471	1	1	74.72012502750749	57.484346910183945	378.92704260849933	0	0	0
472	1	1	75.15965517472813	58.23054611259855	379.42704260849933	0	0	0
473	1	1	75.59918532194877	58.17063301191364	380.32327007407406	0	0	0
474	1	1	76.0387154691694	58.916832214328245	380.82327007407406	0	0	0
475	1	1	76.47824561639004	58.85691911364333	381.7194975396488	0	0	0
476	1	1	76.91777576361068	59.60311831605794	382.2194975396488	0	0	0
477	1	1	77.35730591083131	59.54320521537302	383.1157250052235	0	0	0
478	1	1	77.79683605805195	60.28940441778763	383.6157250052235	0	0	0
479	1	1	78.23636620527259	60.22949131710271	384.51195247079824	0	0	0
480	1	1	78.67589635249323	60.97569051951732	385.01195247079824	0	0	0
481	1	1	79.11542649971386	60.915777418832405	385.90817993637296	0	0	0
482	1	1	79.5549566469345	61.661976621247014	386.40817993637296	0	0	0
483	1	1	79.99448679415514	61.6020635205621	387.3044074019477	0	0	0
484	1	1	80.43401694137577	62.348262722976706	387.8044074019477	0	0	0
485	1	1	80.87354708859641	62.28834962229179	388.7006348675224	0	0	0
486	1	1	81.31307723581705	63.0345488247064	389.2006348675224	0	0	0
487	1	1	81.75260738303768	62.97463572402148	390.09686233309714	0	0	0
488	1	1	82.19213753025832	63.72083492643609	390.59686233309714	0	0	0
489	1	1	82.63166767747896	63.660921825751174	391.49308979867186	0	0	0
490	1	1	83.0711978246996	64.40712102816579	391.99308979867186	0	0	0
491	1	1	83.51072797192023	64.34720792748087	392.8893172642466	0	0	0
492	1	1	83.95025811914087	65.09340712989548	393.3893172642466	0	0	0
493	1	1	84.3897882663615	65.03349402921056	394.2855447298213	0	0	0
494	1	1	84.82931841358214	65.77969323162517	394.7855447298213	0	0	0
495	1	1	85.26884856080278	65.71978013094025	395.68177219539604	0	0	0
496	1	1	85.70837870802342	66.46597933335487	396.18177219539604	0	0	0
497	1	1	86.14790885524405	66.40606623266994	397.07799966097076	0	0	0
498	1	1	86.58743900246469	67.15226543508456	397.57799966097076	0	0	0
499	1	1	87.02696914968533	67.09235233439964	398.4742271265455	0	0	0
500	1	1	87.46649929690597	67.83855153681425	398.9742271265455	0	0	0
501	1	1	87.9060294441266	67.77863843612933	399.8704545921202	0	0	0
502	1	1	88.34555959134724	68.52483763854394	400.3704545921202	0	0	0
503	1	1	88.78508973856788	68.46492453785902	401.26668205769494	0	0	0
504	1	1	89.22461988578851	69.21112374027364	401.76668205769494	0	0	0
505	1	1	89.66415003300915	69.15121063958871	402.66290952326966	0	0	0
506	1	1	90.10368018022979	69.89740984200333	403.16290952326966	0	0	0
507	1	1	90.54321032745042	69.8374967413184	404.0591369888444	0	0	0
508	1	1	90.98274047467106	70.58369594373302	404.5591369888444	0	0	0
509	1	1	91.4222706218917	70.5237828430481	405.4553644544191	0	0	0
510	1	1	91.86180076911234	71.26998204546271	405.9553644544191	0	0	0
511	1	1	92.30133091633297	71.21006894477779	406.85159191999384	0	0	0
512	1	1	92.74086106355361	71.9562681471924	407.35159191999384	0	0	0
513	1	1	93.18039121077425	71.89635504650748	408.24781938556856	0	0	0
514	1	1	93.61992135799488	72.6425542489221	408.74781938556856	0	0	0
515	1	1	94.05945150521552	72.58264114823717	409.6440468511433	0	0	0
516	1	1	94.49898165243616	73.32884035065179	410.1440468511433	0	0	0
517	1	1	94.9385117996568	73.26892724996686	411.040274316718	0	0	0
518	1	1	95.37804194687743	74.01512645238148	411.540274316718	0	0	0
519	1	1	95.81757209409807	73.95521335169656	412.43650178229274	0	0	0
520	1	1	96.2571022413187	74.70141255411117	412.93650178229274	0	0	0
521	1	1	96.69663238853934	74.64149945342625	413.83272924786746	0	0	0
522	1	1	97.13616253575998	75.38769865584086	414.33272924786746	0	0	0