bb666nuc1bl333bn3d30tot1000

1000 atoms
999 bonds
999 angles

1 atom types
1 bond types
1 angle types

-1000 1000 xlo xhi
-1000 1000 ylo yhi
-1000 1000 zlo zhi

Masses

1 1

Atoms

1	1	1	0.0	0.0	0.0	0	0	0
2	1	1	0.0	0.0	1.0	0	0	0
3	1	1	0.0	-0.49999999999999994	1.8660254037844388	0	0	0
4	1	1	0.0	0.0	2.7320508075688776	0	0	0
5	1	1	0.0	-0.49999999999999994	3.5980762113533165	0	0	0
6	1	1	0.0	0.0	4.464101615137755	0	0	0
7	1	1	0.0	-0.49999999999999994	5.330127018922194	0	0	0
8	1	1	0.0	0.0	6.196152422706632	0	0	0
9	1	1	0.0	-0.49999999999999994	7.06217782649107	0	0	0
10	1	1	0.0	0.0	7.928203230275509	0	0	0
11	1	1	0.0	-0.49999999999999994	8.794228634059948	0	0	0
12	1	1	0.0	0.0	9.660254037844387	0	0	0
13	1	1	0.0	-0.49999999999999994	10.526279441628827	0	0	0
14	1	1	0.0	0.0	11.392304845413266	0	0	0
15	1	1	0.0	-0.49999999999999994	12.258330249197705	0	0	0
16	1	1	0.0	0.0	13.124355652982144	0	0	0
17	1	1	0.0	-0.49999999999999994	13.990381056766584	0	0	0
18	1	1	0.0	0.0	14.856406460551023	0	0	0
19	1	1	0.0	-0.49999999999999994	15.722431864335462	0	0	0
20	1	1	0.0	0.0	16.5884572681199	0	0	0
21	1	1	0.0	-0.49999999999999994	17.454482671904337	0	0	0
22	1	1	0.0	0.0	18.320508075688775	0	0	0
23	1	1	0.0	-0.49999999999999994	19.186533479473212	0	0	0
24	1	1	0.0	0.0	20.05255888325765	0	0	0
25	1	1	0.0	-0.49999999999999994	20.918584287042087	0	0	0
26	1	1	0.0	0.0	21.784609690826525	0	0	0
27	1	1	0.0	-0.49999999999999994	22.650635094610962	0	0	0
28	1	1	0.0	0.0	23.5166604983954	0	0	0
29	1	1	0.0	-0.49999999999999994	24.382685902179837	0	0	0
30	1	1	0.0	0.0	25.248711305964274	0	0	0
31	1	1	0.0	-0.49999999999999994	26.114736709748712	0	0	0
32	1	1	0.0	0.0	26.98076211353315	0	0	0
33	1	1	0.0	-0.49999999999999994	27.846787517317587	0	0	0
34	1	1	0.0	0.0	28.712812921102024	0	0	0
35	1	1	0.0	-0.49999999999999994	29.578838324886462	0	0	0
36	1	1	0.0	0.0	30.4448637286709	0	0	0
37	1	1	0.0	-0.49999999999999994	31.310889132455337	0	0	0
38	1	1	0.0	0.0	32.17691453623978	0	0	0
39	1	1	0.0	-0.49999999999999994	33.04293994002422	0	0	0
40	1	1	0.0	0.0	33.90896534380866	0	0	0
41	1	1	0.0	-0.49999999999999994	34.7749907475931	0	0	0
42	1	1	0.0	0.0	35.64101615137754	0	0	0
43	1	1	0.0	-0.49999999999999994	36.50704155516198	0	0	0
44	1	1	0.0	0.0	37.373066958946424	0	0	0
45	1	1	0.0	-0.49999999999999994	38.239092362730865	0	0	0
46	1	1	0.0	0.0	39.105117766515306	0	0	0
47	1	1	0.0	-0.49999999999999994	39.97114317029975	0	0	0
48	1	1	0.0	0.0	40.83716857408419	0	0	0
49	1	1	0.0	-0.49999999999999994	41.70319397786863	0	0	0
50	1	1	0.0	0.0	42.56921938165307	0	0	0
51	1	1	0.0	-0.49999999999999994	43.43524478543751	0	0	0
52	1	1	0.0	0.0	44.30127018922195	0	0	0
53	1	1	0.0	-0.49999999999999994	45.16729559300639	0	0	0
54	1	1	0.0	0.0	46.033320996790835	0	0	0
55	1	1	0.0	-0.49999999999999994	46.899346400575276	0	0	0
56	1	1	0.0	0.0	47.76537180435972	0	0	0
57	1	1	0.0	-0.49999999999999994	48.63139720814416	0	0	0
58	1	1	0.0	0.0	49.4974226119286	0	0	0
59	1	1	0.0	-0.49999999999999994	50.36344801571304	0	0	0
60	1	1	0.0	0.0	51.22947341949748	0	0	0
61	1	1	0.0	-0.49999999999999994	52.09549882328192	0	0	0
62	1	1	0.0	0.0	52.96152422706636	0	0	0
63	1	1	0.0	-0.49999999999999994	53.827549630850804	0	0	0
64	1	1	0.0	0.0	54.693575034635245	0	0	0
65	1	1	0.0	-0.49999999999999994	55.559600438419686	0	0	0
66	1	1	0.0	0.0	56.42562584220413	0	0	0
67	1	1	0.0	-0.49999999999999994	57.29165124598857	0	0	0
68	1	1	0.0	0.0	58.15767664977301	0	0	0
69	1	1	0.0	-0.49999999999999994	59.02370205355745	0	0	0
70	1	1	0.0	0.0	59.88972745734189	0	0	0
71	1	1	0.0	-0.49999999999999994	60.75575286112633	0	0	0
72	1	1	0.0	0.0	61.62177826491077	0	0	0
73	1	1	0.0	-0.49999999999999994	62.487803668695214	0	0	0
74	1	1	0.0	0.0	63.353829072479655	0	0	0
75	1	1	0.0	-0.49999999999999994	64.21985447626409	0	0	0
76	1	1	0.0	0.0	65.08587988004852	0	0	0
77	1	1	0.0	-0.49999999999999994	65.95190528383296	0	0	0
78	1	1	0.0	0.0	66.81793068761739	0	0	0
79	1	1	0.0	-0.49999999999999994	67.68395609140183	0	0	0
80	1	1	0.0	0.0	68.54998149518626	0	0	0
81	1	1	0.0	-0.49999999999999994	69.41600689897069	0	0	0
82	1	1	0.0	0.0	70.28203230275513	0	0	0
83	1	1	0.0	-0.49999999999999994	71.14805770653956	0	0	0
84	1	1	0.0	0.0	72.014083110324	0	0	0
85	1	1	0.0	-0.49999999999999994	72.88010851410843	0	0	0
86	1	1	0.0	0.0	73.74613391789286	0	0	0
87	1	1	0.0	-0.49999999999999994	74.6121593216773	0	0	0
88	1	1	0.0	0.0	75.47818472546173	0	0	0
89	1	1	0.0	-0.49999999999999994	76.34421012924616	0	0	0
90	1	1	0.0	0.0	77.2102355330306	0	0	0
91	1	1	0.0	-0.49999999999999994	78.07626093681503	0	0	0
92	1	1	0.0	0.0	78.94228634059947	0	0	0
93	1	1	0.0	-0.49999999999999994	79.8083117443839	0	0	0
94	1	1	0.0	0.0	80.67433714816833	0	0	0
95	1	1	0.0	-0.49999999999999994	81.54036255195277	0	0	0
96	1	1	0.0	0.0	82.4063879557372	0	0	0
97	1	1	0.0	-0.49999999999999994	83.27241335952164	0	0	0
98	1	1	0.0	0.0	84.13843876330607	0	0	0
99	1	1	0.0	-0.49999999999999994	85.0044641670905	0	0	0
100	1	1	0.0	0.0	85.87048957087494	0	0	0
101	1	1	0.0	-0.49999999999999994	86.73651497465937	0	0	0
102	1	1	0.0	0.0	87.6025403784438	0	0	0
103	1	1	0.0	-0.49999999999999994	88.46856578222824	0	0	0
104	1	1	0.0	0.0	89.33459118601267	0	0	0
105	1	1	0.0	-0.49999999999999994	90.20061658979711	0	0	0
106	1	1	0.0	0.0	91.06664199358154	0	0	0
107	1	1	0.0	-0.49999999999999994	91.93266739736598	0	0	0
108	1	1	0.0	0.0	92.79869280115041	0	0	0
109	1	1	0.0	-0.49999999999999994	93.66471820493484	0	0	0
110	1	1	0.0	0.0	94.53074360871928	0	0	0
111	1	1	0.0	-0.49999999999999994	95.39676901250371	0	0	0
112	1	1	0.0	0.0	96.26279441628814	0	0	0
113	1	1	0.0	-0.49999999999999994	97.12881982007258	0	0	0
114	1	1	0.0	0.0	97.99484522385701	0	0	0
115	1	1	0.0	-0.49999999999999994	98.86087062764145	0	0	0
116	1	1	0.0	0.0	99.72689603142588	0	0	0
117	1	1	0.0	-0.49999999999999994	100.59292143521031	0	0	0
118	1	1	0.0	0.0	101.45894683899475	0	0	0
119	1	1	0.0	-0.49999999999999994	102.32497224277918	0	0	0
120	1	1	0.0	0.0	103.19099764656362	0	0	0
121	1	1	0.0	-0.49999999999999994	104.05702305034805	0	0	0
122	1	1	0.0	0.0	104.92304845413248	0	0	0
123	1	1	0.0	-0.49999999999999994	105.78907385791692	0	0	0
124	1	1	0.0	0.0	106.65509926170135	0	0	0
125	1	1	0.0	-0.49999999999999994	107.52112466548579	0	0	0
126	1	1	0.0	0.0	108.38715006927022	0	0	0
127	1	1	0.0	-0.49999999999999994	109.25317547305465	0	0	0
128	1	1	0.0	0.0	110.11920087683909	0	0	0
129	1	1	0.0	-0.49999999999999994	110.98522628062352	0	0	0
130	1	1	0.0	0.0	111.85125168440796	0	0	0
131	1	1	0.0	-0.49999999999999994	112.71727708819239	0	0	0
132	1	1	0.0	0.0	113.58330249197682	0	0	0
133	1	1	0.0	-0.49999999999999994	114.44932789576126	0	0	0
134	1	1	0.0	0.0	115.31535329954569	0	0	0
135	1	1	0.0	-0.49999999999999994	116.18137870333013	0	0	0
136	1	1	0.0	0.0	117.04740410711456	0	0	0
137	1	1	0.0	-0.49999999999999994	117.913429510899	0	0	0
138	1	1	0.0	0.0	118.77945491468343	0	0	0
139	1	1	0.0	-0.49999999999999994	119.64548031846786	0	0	0
140	1	1	0.0	0.0	120.5115057222523	0	0	0
141	1	1	0.0	-0.49999999999999994	121.37753112603673	0	0	0
142	1	1	0.0	0.0	122.24355652982116	0	0	0
143	1	1	0.0	-0.49999999999999994	123.1095819336056	0	0	0
144	1	1	0.0	0.0	123.97560733739003	0	0	0
145	1	1	0.0	-0.49999999999999994	124.84163274117446	0	0	0
146	1	1	0.0	0.0	125.7076581449589	0	0	0
147	1	1	0.0	-0.49999999999999994	126.57368354874333	0	0	0
148	1	1	0.0	0.0	127.43970895252777	0	0	0
149	1	1	0.0	-0.49999999999999994	128.3057343563122	0	0	0
150	1	1	0.0	0.0	129.17175976009665	0	0	0
151	1	1	0.0	-0.49999999999999994	130.0377851638811	0	0	0
152	1	1	0.0	0.0	130.90381056766554	0	0	0
153	1	1	0.0	-0.49999999999999994	131.76983597145	0	0	0
154	1	1	0.0	0.0	132.63586137523444	0	0	0
155	1	1	0.0	-0.49999999999999994	133.5018867790189	0	0	0
156	1	1	0.0	0.0	134.36791218280334	0	0	0
157	1	1	0.0	-0.49999999999999994	135.23393758658779	0	0	0
158	1	1	0.0	0.0	136.09996299037223	0	0	0
159	1	1	0.0	-0.49999999999999994	136.96598839415668	0	0	0
160	1	1	0.0	0.0	137.83201379794113	0	0	0
161	1	1	0.0	-0.49999999999999994	138.69803920172558	0	0	0
162	1	1	0.0	0.0	139.56406460551003	0	0	0
163	1	1	0.0	-0.49999999999999994	140.43009000929447	0	0	0
164	1	1	0.0	0.0	141.29611541307892	0	0	0
165	1	1	0.0	-0.49999999999999994	142.16214081686337	0	0	0
166	1	1	0.0	0.0	143.02816622064782	0	0	0
167	1	1	0.0	-0.49999999999999994	143.89419162443227	0	0	0
168	1	1	0.0	0.0	144.76021702821672	0	0	0
169	1	1	0.0	-0.49999999999999994	145.62624243200116	0	0	0
170	1	1	0.0	0.0	146.4922678357856	0	0	0
171	1	1	0.0	-0.49999999999999994	147.35829323957006	0	0	0
172	1	1	0.0	0.0	148.2243186433545	0	0	0
173	1	1	0.0	-0.49999999999999994	149.09034404713896	0	0	0
174	1	1	0.0	0.0	149.9563694509234	0	0	0
175	1	1	0.0	-0.49999999999999994	150.82239485470785	0	0	0
176	1	1	0.0	0.0	151.6884202584923	0	0	0
177	1	1	0.0	-0.49999999999999994	152.55444566227675	0	0	0
178	1	1	0.0	0.0	153.4204710660612	0	0	0
179	1	1	0.0	-0.49999999999999994	154.28649646984564	0	0	0
180	1	1	0.0	0.0	155.1525218736301	0	0	0
181	1	1	0.0	-0.49999999999999994	156.01854727741454	0	0	0
182	1	1	0.0	0.0	156.884572681199	0	0	0
183	1	1	0.0	-0.49999999999999994	157.75059808498344	0	0	0
184	1	1	0.0	0.0	158.61662348876789	0	0	0
185	1	1	0.0	-0.49999999999999994	159.48264889255233	0	0	0
186	1	1	0.0	0.0	160.34867429633678	0	0	0
187	1	1	0.0	-0.49999999999999994	161.21469970012123	0	0	0
188	1	1	0.0	0.0	162.08072510390568	0	0	0
189	1	1	0.0	-0.49999999999999994	162.94675050769013	0	0	0
190	1	1	0.0	0.0	163.81277591147457	0	0	0
191	1	1	0.0	-0.49999999999999994	164.67880131525902	0	0	0
192	1	1	0.0	0.0	165.54482671904347	0	0	0
193	1	1	0.0	-0.49999999999999994	166.41085212282792	0	0	0
194	1	1	0.0	0.0	167.27687752661237	0	0	0
195	1	1	0.0	-0.49999999999999994	168.14290293039682	0	0	0
196	1	1	0.0	0.0	169.00892833418126	0	0	0
197	1	1	0.0	-0.49999999999999994	169.8749537379657	0	0	0
198	1	1	0.0	0.0	170.74097914175016	0	0	0
199	1	1	0.0	-0.49999999999999994	171.6070045455346	0	0	0
200	1	1	0.0	0.0	172.47302994931906	0	0	0
201	1	1	0.0	-0.49999999999999994	173.3390553531035	0	0	0
202	1	1	0.0	0.0	174.20508075688795	0	0	0
203	1	1	0.0	-0.49999999999999994	175.0711061606724	0	0	0
204	1	1	0.0	0.0	175.93713156445685	0	0	0
205	1	1	0.0	-0.49999999999999994	176.8031569682413	0	0	0
206	1	1	0.0	0.0	177.66918237202574	0	0	0
207	1	1	0.0	-0.49999999999999994	178.5352077758102	0	0	0
208	1	1	0.0	0.0	179.40123317959464	0	0	0
209	1	1	0.0	-0.49999999999999994	180.2672585833791	0	0	0
210	1	1	0.0	0.0	181.13328398716354	0	0	0
211	1	1	0.0	-0.49999999999999994	181.99930939094799	0	0	0
212	1	1	0.0	0.0	182.86533479473243	0	0	0
213	1	1	0.0	-0.49999999999999994	183.73136019851688	0	0	0
214	1	1	0.0	0.0	184.59738560230133	0	0	0
215	1	1	0.0	-0.49999999999999994	185.46341100608578	0	0	0
216	1	1	0.0	0.0	186.32943640987023	0	0	0
217	1	1	0.0	-0.49999999999999994	187.19546181365467	0	0	0
218	1	1	0.0	0.0	188.06148721743912	0	0	0
219	1	1	0.0	-0.49999999999999994	188.92751262122357	0	0	0
220	1	1	0.0	0.0	189.79353802500802	0	0	0
221	1	1	0.0	-0.49999999999999994	190.65956342879247	0	0	0
222	1	1	0.0	0.0	191.52558883257691	0	0	0
223	1	1	0.0	-0.49999999999999994	192.39161423636136	0	0	0
224	1	1	0.0	0.0	193.2576396401458	0	0	0
225	1	1	0.0	-0.49999999999999994	194.12366504393026	0	0	0
226	1	1	0.0	0.0	194.9896904477147	0	0	0
227	1	1	0.0	-0.49999999999999994	195.85571585149916	0	0	0
228	1	1	0.0	0.0	196.7217412552836	0	0	0
229	1	1	0.0	-0.49999999999999994	197.58776665906805	0	0	0
230	1	1	0.0	0.0	198.4537920628525	0	0	0
231	1	1	0.0	-0.49999999999999994	199.31981746663695	0	0	0
232	1	1	0.0	0.0	200.1858428704214	0	0	0
233	1	1	0.0	-0.49999999999999994	201.05186827420584	0	0	0
234	1	1	0.0	0.0	201.9178936779903	0	0	0
235	1	1	0.0	-0.49999999999999994	202.78391908177474	0	0	0
236	1	1	0.0	0.0	203.6499444855592	0	0	0
237	1	1	0.0	-0.49999999999999994	204.51596988934364	0	0	0
238	1	1	0.0	0.0	205.38199529312809	0	0	0
239	1	1	0.0	-0.49999999999999994	206.24802069691253	0	0	0
240	1	1	0.0	0.0	207.11404610069698	0	0	0
241	1	1	0.0	-0.49999999999999994	207.98007150448143	0	0	0
242	1	1	0.0	0.0	208.84609690826588	0	0	0
243	1	1	0.0	-0.49999999999999994	209.71212231205033	0	0	0
244	1	1	0.0	0.0	210.57814771583477	0	0	0
245	1	1	0.0	-0.49999999999999994	211.44417311961922	0	0	0
246	1	1	0.0	0.0	212.31019852340367	0	0	0
247	1	1	0.0	-0.49999999999999994	213.17622392718812	0	0	0
248	1	1	0.0	0.0	214.04224933097257	0	0	0
249	1	1	0.0	-0.49999999999999994	214.90827473475701	0	0	0
250	1	1	0.0	0.0	215.77430013854146	0	0	0
251	1	1	0.0	-0.49999999999999994	216.6403255423259	0	0	0
252	1	1	0.0	0.0	217.50635094611036	0	0	0
253	1	1	0.0	-0.49999999999999994	218.3723763498948	0	0	0
254	1	1	0.0	0.0	219.23840175367926	0	0	0
255	1	1	0.0	-0.49999999999999994	220.1044271574637	0	0	0
256	1	1	0.0	0.0	220.97045256124815	0	0	0
257	1	1	0.0	-0.49999999999999994	221.8364779650326	0	0	0
258	1	1	0.0	0.0	222.70250336881705	0	0	0
259	1	1	0.0	-0.49999999999999994	223.5685287726015	0	0	0
260	1	1	0.0	0.0	224.43455417638594	0	0	0
261	1	1	0.0	-0.49999999999999994	225.3005795801704	0	0	0
262	1	1	0.0	0.0	226.16660498395484	0	0	0
263	1	1	0.0	-0.49999999999999994	227.0326303877393	0	0	0
264	1	1	0.0	0.0	227.89865579152374	0	0	0
265	1	1	0.0	-0.49999999999999994	228.76468119530819	0	0	0
266	1	1	0.0	0.0	229.63070659909263	0	0	0
267	1	1	0.0	-0.49999999999999994	230.49673200287708	0	0	0
268	1	1	0.0	0.0	231.36275740666153	0	0	0
269	1	1	0.0	-0.49999999999999994	232.22878281044598	0	0	0
270	1	1	0.0	0.0	233.09480821423043	0	0	0
271	1	1	0.0	-0.49999999999999994	233.96083361801487	0	0	0
272	1	1	0.0	0.0	234.82685902179932	0	0	0
273	1	1	0.0	-0.49999999999999994	235.69288442558377	0	0	0
274	1	1	0.0	0.0	236.55890982936822	0	0	0
275	1	1	0.0	-0.49999999999999994	237.42493523315267	0	0	0
276	1	1	0.0	0.0	238.29096063693711	0	0	0
277	1	1	0.0	-0.49999999999999994	239.15698604072156	0	0	0
278	1	1	0.0	0.0	240.023011444506	0	0	0
279	1	1	0.0	-0.49999999999999994	240.88903684829046	0	0	0
280	1	1	0.0	0.0	241.7550622520749	0	0	0
281	1	1	0.0	-0.49999999999999994	242.62108765585936	0	0	0
282	1	1	0.0	0.0	243.4871130596438	0	0	0
283	1	1	0.0	-0.49999999999999994	244.35313846342825	0	0	0
284	1	1	0.0	0.0	245.2191638672127	0	0	0
285	1	1	0.0	-0.49999999999999994	246.08518927099715	0	0	0
286	1	1	0.0	0.0	246.9512146747816	0	0	0
287	1	1	0.0	-0.49999999999999994	247.81724007856604	0	0	0
288	1	1	0.0	0.0	248.6832654823505	0	0	0
289	1	1	0.0	-0.49999999999999994	249.54929088613494	0	0	0
290	1	1	0.0	0.0	250.4153162899194	0	0	0
291	1	1	0.0	-0.49999999999999994	251.28134169370384	0	0	0
292	1	1	0.0	0.0	252.14736709748829	0	0	0
293	1	1	0.0	-0.49999999999999994	253.01339250127273	0	0	0
294	1	1	0.0	0.0	253.87941790505718	0	0	0
295	1	1	0.0	-0.49999999999999994	254.74544330884163	0	0	0
296	1	1	0.0	0.0	255.61146871262608	0	0	0
297	1	1	0.0	-0.49999999999999994	256.4774941164105	0	0	0
298	1	1	0.0	0.0	257.34351952019495	0	0	0
299	1	1	0.0	-0.49999999999999994	258.20954492397937	0	0	0
300	1	1	0.0	0.0	259.0755703277638	0	0	0
301	1	1	0.0	-0.49999999999999994	259.9415957315482	0	0	0
302	1	1	0.0	0.0	260.8076211353326	0	0	0
303	1	1	0.0	-0.49999999999999994	261.67364653911704	0	0	0
304	1	1	0.0	0.0	262.53967194290146	0	0	0
305	1	1	0.0	-0.49999999999999994	263.4056973466859	0	0	0
306	1	1	0.0	0.0	264.2717227504703	0	0	0
307	1	1	0.0	-0.49999999999999994	265.1377481542547	0	0	0
308	1	1	0.0	0.0	266.00377355803914	0	0	0
309	1	1	0.0	-0.49999999999999994	266.86979896182356	0	0	0
310	1	1	0.0	0.0	267.735824365608	0	0	0
311	1	1	0.0	-0.49999999999999994	268.6018497693924	0	0	0
312	1	1	0.0	0.0	269.4678751731768	0	0	0
313	1	1	0.0	-0.49999999999999994	270.33390057696124	0	0	0
314	1	1	0.0	0.0	271.19992598074566	0	0	0
315	1	1	0.0	-0.49999999999999994	272.0659513845301	0	0	0
316	1	1	0.0	0.0	272.9319767883145	0	0	0
317	1	1	0.0	-0.49999999999999994	273.7980021920989	0	0	0
318	1	1	0.0	0.0	274.66402759588334	0	0	0
319	1	1	0.0	-0.49999999999999994	275.53005299966776	0	0	0
320	1	1	0.0	0.0	276.3960784034522	0	0	0
321	1	1	0.0	-0.49999999999999994	277.2621038072366	0	0	0
322	1	1	0.0	0.0	278.128129211021	0	0	0
323	1	1	0.0	-0.49999999999999994	278.99415461480544	0	0	0
324	1	1	0.0	0.0	279.86018001858986	0	0	0
325	1	1	0.0	-0.49999999999999994	280.7262054223743	0	0	0
326	1	1	0.0	0.0	281.5922308261587	0	0	0
327	1	1	0.0	-0.49999999999999994	282.4582562299431	0	0	0
328	1	1	0.0	0.0	283.32428163372754	0	0	0
329	1	1	0.0	-0.49999999999999994	284.19030703751196	0	0	0
330	1	1	0.0	0.0	285.0563324412964	0	0	0
331	1	1	0.0	-0.49999999999999994	285.9223578450808	0	0	0
332	1	1	0.0	0.0	286.7883832488652	0	0	0
333	1	1	0.0	-0.49999999999999994	287.65440865264964	0	0	0
334	1	1	0.0	0.0	288.52043405643406	0	0	0
335	1	1	-0.5526287026585989	0.8274522817933863	288.62005452798866	0	0	0
336	1	1	-1.1052574053172068	1.4942367424685732	289.1200545279886	0	0	0
337	1	1	-1.657886107975815	2.2606416746983546	288.79260224619514	0	0	0
338	1	1	-2.210514810634423	2.927426135373542	289.2926022461951	0	0	0
339	1	1	-2.763143513293031	3.6938310676033232	288.96514996440163	0	0	0
340	1	1	-3.315772215951639	4.36061552827851	289.4651499644016	0	0	0
341	1	1	-3.8684009186102473	5.127020460508292	289.1376976826081	0	0	0
342	1	1	-4.421029621268855	5.793804921183479	289.63769768260806	0	0	0
343	1	1	-4.973658323927463	6.5602098534132605	289.3102454008146	0	0	0
344	1	1	-5.526287026586071	7.226994314088447	289.81024540081455	0	0	0
345	1	1	-6.078915729244679	7.993399246318229	289.4827931190211	0	0	0
346	1	1	-6.631544431903287	8.660183706993417	289.98279311902104	0	0	0
347	1	1	-7.184173134561895	9.426588639223198	289.6553408372276	0	0	0
348	1	1	-7.736801837220503	10.093373099898384	290.1553408372275	0	0	0
349	1	1	-8.289430539879111	10.859778032128165	289.8278885554341	0	0	0
350	1	1	-8.842059242537719	11.526562492803352	290.327888555434	0	0	0
351	1	1	-9.394687945196326	12.292967425033133	290.00043627364056	0	0	0
352	1	1	-9.947316647854933	12.95975188570832	290.5004362736405	0	0	0
353	1	1	-10.49994535051354	13.7261568179381	290.17298399184705	0	0	0
354	1	1	-11.052574053172147	14.392941278613288	290.672983991847	0	0	0
355	1	1	-11.605202755830755	15.159346210843069	290.34553171005354	0	0	0
356	1	1	-12.157831458489362	15.826130671518255	290.8455317100535	0	0	0
357	1	1	-12.710460161147969	16.592535603748036	290.51807942826	0	0	0
358	1	1	-13.263088863806576	17.259320064423225	291.01807942825997	0	0	0
359	1	1	-13.815717566465183	18.025724996653008	290.6906271464665	0	0	0
360	1	1	-14.36834626912379	18.692509457328196	291.19062714646645	0	0	0
361	1	1	-14.920974971782398	19.45891438955798	290.863174864673	0	0	0
362	1	1	-15.473603674441005	20.125698850233167	291.36317486467294	0	0	0
363	1	1	-16.026232377099614	20.89210378246295	291.0357225828795	0	0	0
364	1	1	-16.578861079758223	21.55888824313814	291.53572258287943	0	0	0
365	1	1	-17.131489782416832	22.32529317536792	291.208270301086	0	0	0
366	1	1	-17.68411848507544	22.99207763604311	291.7082703010859	0	0	0
367	1	1	-18.23674718773405	23.758482568272893	291.38081801929246	0	0	0
368	1	1	-18.78937589039266	24.42526702894808	291.8808180192924	0	0	0
369	1	1	-19.342004593051268	25.191671961177864	291.55336573749895	0	0	0
370	1	1	-19.894633295709877	25.858456421853052	292.0533657374989	0	0	0
371	1	1	-20.447261998368486	26.624861354082835	291.72591345570544	0	0	0
372	1	1	-20.999890701027095	27.291645814758024	292.2259134557054	0	0	0
373	1	1	-21.552519403685704	28.058050746987806	291.8984611739119	0	0	0
374	1	1	-22.105148106344313	28.724835207662995	292.39846117391187	0	0	0
375	1	1	-22.65777680900292	29.491240139892778	292.0710088921184	0	0	0
376	1	1	-23.21040551166153	30.158024600567966	292.57100889211836	0	0	0
377	1	1	-23.76303421432014	30.92442953279775	292.2435566103249	0	0	0
378	1	1	-24.31566291697875	31.591213993472937	292.74355661032484	0	0	0
379	1	1	-24.868291619637358	32.35761892570272	292.4161043285314	0	0	0
380	1	1	-25.420920322295967	33.024403386377905	292.91610432853133	0	0	0
381	1	1	-25.973549024954576	33.79080831860769	292.5886520467379	0	0	0
382	1	1	-26.526177727613184	34.45759277928288	293.0886520467378	0	0	0
383	1	1	-27.078806430271793	35.22399771151266	292.76119976494437	0	0	0
384	1	1	-27.631435132930402	35.89078217218785	293.2611997649443	0	0	0
385	1	1	-28.18406383558901	36.65718710441763	292.93374748315085	0	0	0
386	1	1	-28.73669253824762	37.32397156509282	293.4337474831508	0	0	0
387	1	1	-29.28932124090623	38.0903764973226	293.10629520135734	0	0	0
388	1	1	-29.84194994356484	38.75716095799779	293.6062952013573	0	0	0
389	1	1	-30.394578646223447	39.52356589022757	293.27884291956383	0	0	0
390	1	1	-30.947207348882056	40.19035035090276	293.7788429195638	0	0	0
391	1	1	-31.499836051540665	40.956755283132544	293.4513906377703	0	0	0
392	1	1	-32.05246475419927	41.62353974380773	293.95139063777026	0	0	0
393	1	1	-32.60509345685788	42.389944676037516	293.6239383559768	0	0	0
394	1	1	-33.15772215951649	43.056729136712704	294.12393835597675	0	0	0
395	1	1	-33.7103508621751	43.82313406894249	293.7964860741833	0	0	0
396	1	1	-34.26297956483371	44.489918529617675	294.29648607418324	0	0	0
397	1	1	-34.815608267492316	45.25632346184746	293.9690337923898	0	0	0
398	1	1	-35.368236970150924	45.92310792252265	294.4690337923897	0	0	0
399	1	1	-35.92086567280953	46.68951285475243	294.14158151059627	0	0	0
400	1	1	-36.47349437546814	47.35629731542762	294.6415815105962	0	0	0
401	1	1	-37.02612307812675	48.1227022476574	294.31412922880276	0	0	0
402	1	1	-37.57875178078536	48.78948670833259	294.8141292288027	0	0	0
403	1	1	-38.13138048344397	49.55589164056237	294.48667694700924	0	0	0
404	1	1	-38.68400918610258	50.22267610123756	294.9866769470092	0	0	0
405	1	1	-39.23663788876119	50.98908103346734	294.65922466521573	0	0	0
406	1	1	-39.789266591419796	51.65586549414253	295.1592246652157	0	0	0
407	1	1	-40.341895294078405	52.422270426372314	294.8317723834222	0	0	0
408	1	1	-40.894523996737014	53.0890548870475	295.33177238342216	0	0	0
409	1	1	-41.44715269939562	53.855459819277286	295.0043201016287	0	0	0
410	1	1	-41.99978140205423	54.522244279952474	295.50432010162865	0	0	0
411	1	1	-42.55241010471284	55.28864921218226	295.1768678198352	0	0	0
412	1	1	-43.10503880737145	55.955433672857446	295.67686781983514	0	0	0
413	1	1	-43.65766751003006	56.72183860508723	295.3494155380417	0	0	0
414	1	1	-44.21029621268867	57.38862306576242	295.8494155380416	0	0	0
415	1	1	-44.76292491534728	58.1550279979922	295.52196325624817	0	0	0
416	1	1	-45.315553618005886	58.82181245866739	296.0219632562481	0	0	0
417	1	1	-45.868182320664495	59.58821739089717	295.69451097445466	0	0	0
418	1	1	-46.420811023323104	60.25500185157236	296.1945109744546	0	0	0
419	1	1	-46.97343972598171	61.02140678380214	295.86705869266115	0	0	0
420	1	1	-47.52606842864032	61.68819124447733	296.3670586926611	0	0	0
421	1	1	-48.07869713129893	62.45459617670711	296.03960641086763	0	0	0
422	1	1	-48.63132583395754	63.1213806373823	296.5396064108676	0	0	0
423	1	1	-49.18395453661615	63.887785569612085	296.2121541290741	0	0	0
424	1	1	-49.73658323927476	64.55457003028727	296.71215412907407	0	0	0
425	1	1	-50.28921194193337	65.32097496251704	296.3847018472806	0	0	0
426	1	1	-50.841840644591976	65.98775942319223	296.88470184728055	0	0	0
427	1	1	-51.394469347250585	66.754164355422	296.5572495654871	0	0	0
428	1	1	-51.947098049909194	67.4209488160972	297.05724956548704	0	0	0
429	1	1	-52.4997267525678	68.18735374832697	296.7297972836936	0	0	0
430	1	1	-53.05235545522641	68.85413820900216	297.22979728369353	0	0	0
431	1	1	-53.60498415788502	69.62054314123193	296.9023450019001	0	0	0
432	1	1	-54.15761286054363	70.28732760190712	297.4023450019	0	0	0
433	1	1	-54.71024156320224	71.0537325341369	297.07489272010656	0	0	0
434	1	1	-55.26287026586085	71.72051699481209	297.5748927201065	0	0	0
435	1	1	-55.81549896851946	72.48692192704186	297.24744043831305	0	0	0
436	1	1	-56.368127671178065	73.15370638771705	297.747440438313	0	0	0
437	1	1	-56.920756373836674	73.92011131994683	297.41998815651954	0	0	0
438	1	1	-57.47338507649528	74.58689578062202	297.9199881565195	0	0	0
439	1	1	-58.02601377915389	75.35330071285179	297.592535874726	0	0	0
440	1	1	-58.5786424818125	76.02008517352698	298.09253587472597	0	0	0
441	1	1	-59.13127118447111	76.78649010575676	297.7650835929325	0	0	0
442	1	1	-59.68389988712972	77.45327456643194	298.26508359293246	0	0	0
443	1	1	-60.23652858978833	78.21967949866172	297.937631311139	0	0	0
444	1	1	-60.78915729244694	78.88646395933691	298.43763131113894	0	0	0
445	1	1	-61.341785995105546	79.65286889156668	298.1101790293455	0	0	0
446	1	1	-61.894414697764155	80.31965335224187	298.61017902934543	0	0	0
447	1	1	-62.447043400422764	81.08605828447165	298.282726747552	0	0	0
448	1	1	-62.99967210308137	81.75284274514684	298.7827267475519	0	0	0
449	1	1	-63.55230080573998	82.51924767737661	298.45527446575846	0	0	0
450	1	1	-64.10492950839858	83.1860321380518	298.9552744657584	0	0	0
451	1	1	-64.6575582110572	83.95243707028158	298.62782218396495	0	0	0
452	1	1	-65.2101869137158	84.61922153095676	299.1278221839649	0	0	0
453	1	1	-65.76281561637441	85.38562646318654	298.80036990217144	0	0	0
454	1	1	-66.31544431903302	86.05241092386173	299.3003699021714	0	0	0
455	1	1	-66.86807302169163	86.8188158560915	298.9729176203779	0	0	0
456	1	1	-67.42070172435024	87.48560031676669	299.47291762037787	0	0	0
457	1	1	-67.97333042700885	88.25200524899647	299.1454653385844	0	0	0
458	1	1	-68.52595912966746	88.91878970967166	299.64546533858436	0	0	0
459	1	1	-69.07858783232606	89.68519464190143	299.3180130567909	0	0	0
460	1	1	-69.63121653498467	90.35197910257662	299.81801305679085	0	0	0
461	1	1	-70.18384523764328	91.1183840348064	299.4905607749974	0	0	0
462	1	1	-70.73647394030189	91.78516849548159	299.99056077499733	0	0	0
463	1	1	-71.2891026429605	92.55157342771136	299.6631084932039	0	0	0
464	1	1	-71.84173134561911	93.21835788838655	300.1631084932038	0	0	0
465	1	1	-72.39436004827772	93.98476282061633	299.83565621141037	0	0	0
466	1	1	-72.94698875093633	94.65154728129151	300.3356562114103	0	0	0
467	1	1	-73.49961745359494	95.41795221352129	300.00820392961685	0	0	0
468	1	1	-74.05224615625355	96.08473667419648	300.5082039296168	0	0	0
469	1	1	-74.60487485891215	96.85114160642625	300.18075164782334	0	0	0
470	1	1	-75.15750356157076	97.51792606710144	300.6807516478233	0	0	0
471	1	1	-75.71013226422937	98.28433099933122	300.35329936602983	0	0	0
472	1	1	-76.26276096688798	98.9511154600064	300.8532993660298	0	0	0
473	1	1	-76.81538966954659	99.71752039223618	300.5258470842363	0	0	0
474	1	1	-77.3680183722052	100.38430485291137	301.02584708423626	0	0	0
475	1	1	-77.92064707486381	101.15070978514115	300.6983948024428	0	0	0
476	1	1	-78.47327577752242	101.81749424581633	301.19839480244275	0	0	0
477	1	1	-79.02590448018103	102.58389917804611	300.8709425206493	0	0	0
478	1	1	-79.57853318283964	103.2506836387213	301.37094252064924	0	0	0
479	1	1	-80.13116188549824	104.01708857095107	301.0434902388558	0	0	0
480	1	1	-80.68379058815685	104.68387303162626	301.5434902388557	0	0	0
481	1	1	-81.23641929081546	105.45027796385604	301.21603795706227	0	0	0
482	1	1	-81.78904799347407	106.11706242453123	301.7160379570622	0	0	0
483	1	1	-82.34167669613268	106.883467356761	301.38858567526876	0	0	0
484	1	1	-82.89430539879129	107.55025181743619	301.8885856752687	0	0	0
485	1	1	-83.4469341014499	108.31665674966597	301.56113339347525	0	0	0
486	1	1	-83.9995628041085	108.98344121034116	302.0611333934752	0	0	0
487	1	1	-84.55219150676712	109.74984614257093	301.73368111168173	0	0	0
488	1	1	-85.10482020942572	110.41663060324612	302.2336811116817	0	0	0
489	1	1	-85.65744891208433	111.1830355354759	301.9062288298882	0	0	0
490	1	1	-86.21007761474294	111.84981999615108	302.40622882988816	0	0	0
491	1	1	-86.76270631740155	112.61622492838086	302.0787765480947	0	0	0
492	1	1	-87.31533502006016	113.28300938905605	302.57877654809465	0	0	0
493	1	1	-87.86796372271877	114.04941432128582	302.2513242663012	0	0	0
494	1	1	-88.42059242537738	114.71619878196101	302.75132426630114	0	0	0
495	1	1	-88.97322112803599	115.48260371419079	302.4238719845077	0	0	0
496	1	1	-89.5258498306946	116.14938817486598	302.9238719845076	0	0	0
497	1	1	-90.0784785333532	116.91579310709575	302.5964197027142	0	0	0
498	1	1	-90.63110723601181	117.58257756777094	303.0964197027141	0	0	0
499	1	1	-91.18373593867042	118.34898250000072	302.76896742092066	0	0	0
500	1	1	-91.73636464132903	119.0157669606759	303.2689674209206	0	0	0
501	1	1	-92.28899334398764	119.78217189290568	302.94151513912715	0	0	0
502	1	1	-92.84162204664625	120.44895635358087	303.4415151391271	0	0	0
503	1	1	-93.39425074930486	121.21536128581064	303.11406285733364	0	0	0
504	1	1	-93.94687945196347	121.88214574648583	303.6140628573336	0	0	0
505	1	1	-94.49950815462208	122.64855067871561	303.2866105755401	0	0	0
506	1	1	-95.05213685728069	123.3153351393908	303.78661057554007	0	0	0
507	1	1	-95.6047655599393	124.08174007162057	303.4591582937466	0	0	0
508	1	1	-96.1573942625979	124.74852453229576	303.95915829374655	0	0	0
509	1	1	-96.71002296525651	125.51492946452554	303.6317060119531	0	0	0
510	1	1	-97.26265166791512	126.18171392520073	304.13170601195304	0	0	0
511	1	1	-97.81528037057373	126.9481188574305	303.8042537301596	0	0	0
512	1	1	-98.36790907323234	127.61490331810569	304.30425373015953	0	0	0
513	1	1	-98.92053777589095	128.38130825033548	303.9768014483661	0	0	0
514	1	1	-99.47316647854956	129.04809271101067	304.476801448366	0	0	0
515	1	1	-100.02579518120817	129.81449764324046	304.14934916657256	0	0	0
516	1	1	-100.57842388386678	130.48128210391565	304.6493491665725	0	0	0
517	1	1	-101.13105258652539	131.24768703614544	304.32189688477905	0	0	0
518	1	1	-101.683681289184	131.91447149682062	304.821896884779	0	0	0
519	1	1	-102.2363099918426	132.68087642905041	304.49444460298554	0	0	0
520	1	1	-102.78893869450121	133.3476608897256	304.9944446029855	0	0	0
521	1	1	-103.34156739715982	134.1140658219554	304.666992321192	0	0	0
522	1	1	-103.89419609981843	134.78085028263058	305.16699232119197	0	0	0
523	1	1	-104.44682480247704	135.54725521486037	304.8395400393985	0	0	0
524	1	1	-104.99945350513565	136.21403967553556	305.33954003939846	0	0	0
525	1	1	-105.55208220779426	136.98044460776535	305.012087757605	0	0	0
526	1	1	-106.10471091045287	137.64722906844054	305.51208775760495	0	0	0
527	1	1	-106.65733961311147	138.41363400067033	305.1846354758115	0	0	0
528	1	1	-107.20996831577008	139.08041846134552	305.68463547581143	0	0	0