bb733nuc1bl366bn3d30tot1100

1099 atoms
1098 bonds
1098 angles

1 atom types
1 bond types
1 angle types

-1000 1000 xlo xhi
-1000 1000 ylo yhi
-1000 1000 zlo zhi

Masses

1 1

Atoms

1	1	1	0.0	0.0	0.0	0	0	0
2	1	1	0.0	0.0	1.0	0	0	0
3	1	1	0.0	-0.49999999999999994	1.8660254037844388	0	0	0
4	1	1	0.0	0.0	2.7320508075688776	0	0	0
5	1	1	0.0	-0.49999999999999994	3.5980762113533165	0	0	0
6	1	1	0.0	0.0	4.464101615137755	0	0	0
7	1	1	0.0	-0.49999999999999994	5.330127018922194	0	0	0
8	1	1	0.0	0.0	6.196152422706632	0	0	0
9	1	1	0.0	-0.49999999999999994	7.06217782649107	0	0	0
10	1	1	0.0	0.0	7.928203230275509	0	0	0
11	1	1	0.0	-0.49999999999999994	8.794228634059948	0	0	0
12	1	1	0.0	0.0	9.660254037844387	0	0	0
13	1	1	0.0	-0.49999999999999994	10.526279441628827	0	0	0
14	1	1	0.0	0.0	11.392304845413266	0	0	0
15	1	1	0.0	-0.49999999999999994	12.258330249197705	0	0	0
16	1	1	0.0	0.0	13.124355652982144	0	0	0
17	1	1	0.0	-0.49999999999999994	13.990381056766584	0	0	0
18	1	1	0.0	0.0	14.856406460551023	0	0	0
19	1	1	0.0	-0.49999999999999994	15.722431864335462	0	0	0
20	1	1	0.0	0.0	16.5884572681199	0	0	0
21	1	1	0.0	-0.49999999999999994	17.454482671904337	0	0	0
22	1	1	0.0	0.0	18.320508075688775	0	0	0
23	1	1	0.0	-0.49999999999999994	19.186533479473212	0	0	0
24	1	1	0.0	0.0	20.05255888325765	0	0	0
25	1	1	0.0	-0.49999999999999994	20.918584287042087	0	0	0
26	1	1	0.0	0.0	21.784609690826525	0	0	0
27	1	1	0.0	-0.49999999999999994	22.650635094610962	0	0	0
28	1	1	0.0	0.0	23.5166604983954	0	0	0
29	1	1	0.0	-0.49999999999999994	24.382685902179837	0	0	0
30	1	1	0.0	0.0	25.248711305964274	0	0	0
31	1	1	0.0	-0.49999999999999994	26.114736709748712	0	0	0
32	1	1	0.0	0.0	26.98076211353315	0	0	0
33	1	1	0.0	-0.49999999999999994	27.846787517317587	0	0	0
34	1	1	0.0	0.0	28.712812921102024	0	0	0
35	1	1	0.0	-0.49999999999999994	29.578838324886462	0	0	0
36	1	1	0.0	0.0	30.4448637286709	0	0	0
37	1	1	0.0	-0.49999999999999994	31.310889132455337	0	0	0
38	1	1	0.0	0.0	32.17691453623978	0	0	0
39	1	1	0.0	-0.49999999999999994	33.04293994002422	0	0	0
40	1	1	0.0	0.0	33.90896534380866	0	0	0
41	1	1	0.0	-0.49999999999999994	34.7749907475931	0	0	0
42	1	1	0.0	0.0	35.64101615137754	0	0	0
43	1	1	0.0	-0.49999999999999994	36.50704155516198	0	0	0
44	1	1	0.0	0.0	37.373066958946424	0	0	0
45	1	1	0.0	-0.49999999999999994	38.239092362730865	0	0	0
46	1	1	0.0	0.0	39.105117766515306	0	0	0
47	1	1	0.0	-0.49999999999999994	39.97114317029975	0	0	0
48	1	1	0.0	0.0	40.83716857408419	0	0	0
49	1	1	0.0	-0.49999999999999994	41.70319397786863	0	0	0
50	1	1	0.0	0.0	42.56921938165307	0	0	0
51	1	1	0.0	-0.49999999999999994	43.43524478543751	0	0	0
52	1	1	0.0	0.0	44.30127018922195	0	0	0
53	1	1	0.0	-0.49999999999999994	45.16729559300639	0	0	0
54	1	1	0.0	0.0	46.033320996790835	0	0	0
55	1	1	0.0	-0.49999999999999994	46.899346400575276	0	0	0
56	1	1	0.0	0.0	47.76537180435972	0	0	0
57	1	1	0.0	-0.49999999999999994	48.63139720814416	0	0	0
58	1	1	0.0	0.0	49.4974226119286	0	0	0
59	1	1	0.0	-0.49999999999999994	50.36344801571304	0	0	0
60	1	1	0.0	0.0	51.22947341949748	0	0	0
61	1	1	0.0	-0.49999999999999994	52.09549882328192	0	0	0
62	1	1	0.0	0.0	52.96152422706636	0	0	0
63	1	1	0.0	-0.49999999999999994	53.827549630850804	0	0	0
64	1	1	0.0	0.0	54.693575034635245	0	0	0
65	1	1	0.0	-0.49999999999999994	55.559600438419686	0	0	0
66	1	1	0.0	0.0	56.42562584220413	0	0	0
67	1	1	0.0	-0.49999999999999994	57.29165124598857	0	0	0
68	1	1	0.0	0.0	58.15767664977301	0	0	0
69	1	1	0.0	-0.49999999999999994	59.02370205355745	0	0	0
70	1	1	0.0	0.0	59.88972745734189	0	0	0
71	1	1	0.0	-0.49999999999999994	60.75575286112633	0	0	0
72	1	1	0.0	0.0	61.62177826491077	0	0	0
73	1	1	0.0	-0.49999999999999994	62.487803668695214	0	0	0
74	1	1	0.0	0.0	63.353829072479655	0	0	0
75	1	1	0.0	-0.49999999999999994	64.21985447626409	0	0	0
76	1	1	0.0	0.0	65.08587988004852	0	0	0
77	1	1	0.0	-0.49999999999999994	65.95190528383296	0	0	0
78	1	1	0.0	0.0	66.81793068761739	0	0	0
79	1	1	0.0	-0.49999999999999994	67.68395609140183	0	0	0
80	1	1	0.0	0.0	68.54998149518626	0	0	0
81	1	1	0.0	-0.49999999999999994	69.41600689897069	0	0	0
82	1	1	0.0	0.0	70.28203230275513	0	0	0
83	1	1	0.0	-0.49999999999999994	71.14805770653956	0	0	0
84	1	1	0.0	0.0	72.014083110324	0	0	0
85	1	1	0.0	-0.49999999999999994	72.88010851410843	0	0	0
86	1	1	0.0	0.0	73.74613391789286	0	0	0
87	1	1	0.0	-0.49999999999999994	74.6121593216773	0	0	0
88	1	1	0.0	0.0	75.47818472546173	0	0	0
89	1	1	0.0	-0.49999999999999994	76.34421012924616	0	0	0
90	1	1	0.0	0.0	77.2102355330306	0	0	0
91	1	1	0.0	-0.49999999999999994	78.07626093681503	0	0	0
92	1	1	0.0	0.0	78.94228634059947	0	0	0
93	1	1	0.0	-0.49999999999999994	79.8083117443839	0	0	0
94	1	1	0.0	0.0	80.67433714816833	0	0	0
95	1	1	0.0	-0.49999999999999994	81.54036255195277	0	0	0
96	1	1	0.0	0.0	82.4063879557372	0	0	0
97	1	1	0.0	-0.49999999999999994	83.27241335952164	0	0	0
98	1	1	0.0	0.0	84.13843876330607	0	0	0
99	1	1	0.0	-0.49999999999999994	85.0044641670905	0	0	0
100	1	1	0.0	0.0	85.87048957087494	0	0	0
101	1	1	0.0	-0.49999999999999994	86.73651497465937	0	0	0
102	1	1	0.0	0.0	87.6025403784438	0	0	0
103	1	1	0.0	-0.49999999999999994	88.46856578222824	0	0	0
104	1	1	0.0	0.0	89.33459118601267	0	0	0
105	1	1	0.0	-0.49999999999999994	90.20061658979711	0	0	0
106	1	1	0.0	0.0	91.06664199358154	0	0	0
107	1	1	0.0	-0.49999999999999994	91.93266739736598	0	0	0
108	1	1	0.0	0.0	92.79869280115041	0	0	0
109	1	1	0.0	-0.49999999999999994	93.66471820493484	0	0	0
110	1	1	0.0	0.0	94.53074360871928	0	0	0
111	1	1	0.0	-0.49999999999999994	95.39676901250371	0	0	0
112	1	1	0.0	0.0	96.26279441628814	0	0	0
113	1	1	0.0	-0.49999999999999994	97.12881982007258	0	0	0
114	1	1	0.0	0.0	97.99484522385701	0	0	0
115	1	1	0.0	-0.49999999999999994	98.86087062764145	0	0	0
116	1	1	0.0	0.0	99.72689603142588	0	0	0
117	1	1	0.0	-0.49999999999999994	100.59292143521031	0	0	0
118	1	1	0.0	0.0	101.45894683899475	0	0	0
119	1	1	0.0	-0.49999999999999994	102.32497224277918	0	0	0
120	1	1	0.0	0.0	103.19099764656362	0	0	0
121	1	1	0.0	-0.49999999999999994	104.05702305034805	0	0	0
122	1	1	0.0	0.0	104.92304845413248	0	0	0
123	1	1	0.0	-0.49999999999999994	105.78907385791692	0	0	0
124	1	1	0.0	0.0	106.65509926170135	0	0	0
125	1	1	0.0	-0.49999999999999994	107.52112466548579	0	0	0
126	1	1	0.0	0.0	108.38715006927022	0	0	0
127	1	1	0.0	-0.49999999999999994	109.25317547305465	0	0	0
128	1	1	0.0	0.0	110.11920087683909	0	0	0
129	1	1	0.0	-0.49999999999999994	110.98522628062352	0	0	0
130	1	1	0.0	0.0	111.85125168440796	0	0	0
131	1	1	0.0	-0.49999999999999994	112.71727708819239	0	0	0
132	1	1	0.0	0.0	113.58330249197682	0	0	0
133	1	1	0.0	-0.49999999999999994	114.44932789576126	0	0	0
134	1	1	0.0	0.0	115.31535329954569	0	0	0
135	1	1	0.0	-0.49999999999999994	116.18137870333013	0	0	0
136	1	1	0.0	0.0	117.04740410711456	0	0	0
137	1	1	0.0	-0.49999999999999994	117.913429510899	0	0	0
138	1	1	0.0	0.0	118.77945491468343	0	0	0
139	1	1	0.0	-0.49999999999999994	119.64548031846786	0	0	0
140	1	1	0.0	0.0	120.5115057222523	0	0	0
141	1	1	0.0	-0.49999999999999994	121.37753112603673	0	0	0
142	1	1	0.0	0.0	122.24355652982116	0	0	0
143	1	1	0.0	-0.49999999999999994	123.1095819336056	0	0	0
144	1	1	0.0	0.0	123.97560733739003	0	0	0
145	1	1	0.0	-0.49999999999999994	124.84163274117446	0	0	0
146	1	1	0.0	0.0	125.7076581449589	0	0	0
147	1	1	0.0	-0.49999999999999994	126.57368354874333	0	0	0
148	1	1	0.0	0.0	127.43970895252777	0	0	0
149	1	1	0.0	-0.49999999999999994	128.3057343563122	0	0	0
150	1	1	0.0	0.0	129.17175976009665	0	0	0
151	1	1	0.0	-0.49999999999999994	130.0377851638811	0	0	0
152	1	1	0.0	0.0	130.90381056766554	0	0	0
153	1	1	0.0	-0.49999999999999994	131.76983597145	0	0	0
154	1	1	0.0	0.0	132.63586137523444	0	0	0
155	1	1	0.0	-0.49999999999999994	133.5018867790189	0	0	0
156	1	1	0.0	0.0	134.36791218280334	0	0	0
157	1	1	0.0	-0.49999999999999994	135.23393758658779	0	0	0
158	1	1	0.0	0.0	136.09996299037223	0	0	0
159	1	1	0.0	-0.49999999999999994	136.96598839415668	0	0	0
160	1	1	0.0	0.0	137.83201379794113	0	0	0
161	1	1	0.0	-0.49999999999999994	138.69803920172558	0	0	0
162	1	1	0.0	0.0	139.56406460551003	0	0	0
163	1	1	0.0	-0.49999999999999994	140.43009000929447	0	0	0
164	1	1	0.0	0.0	141.29611541307892	0	0	0
165	1	1	0.0	-0.49999999999999994	142.16214081686337	0	0	0
166	1	1	0.0	0.0	143.02816622064782	0	0	0
167	1	1	0.0	-0.49999999999999994	143.89419162443227	0	0	0
168	1	1	0.0	0.0	144.76021702821672	0	0	0
169	1	1	0.0	-0.49999999999999994	145.62624243200116	0	0	0
170	1	1	0.0	0.0	146.4922678357856	0	0	0
171	1	1	0.0	-0.49999999999999994	147.35829323957006	0	0	0
172	1	1	0.0	0.0	148.2243186433545	0	0	0
173	1	1	0.0	-0.49999999999999994	149.09034404713896	0	0	0
174	1	1	0.0	0.0	149.9563694509234	0	0	0
175	1	1	0.0	-0.49999999999999994	150.82239485470785	0	0	0
176	1	1	0.0	0.0	151.6884202584923	0	0	0
177	1	1	0.0	-0.49999999999999994	152.55444566227675	0	0	0
178	1	1	0.0	0.0	153.4204710660612	0	0	0
179	1	1	0.0	-0.49999999999999994	154.28649646984564	0	0	0
180	1	1	0.0	0.0	155.1525218736301	0	0	0
181	1	1	0.0	-0.49999999999999994	156.01854727741454	0	0	0
182	1	1	0.0	0.0	156.884572681199	0	0	0
183	1	1	0.0	-0.49999999999999994	157.75059808498344	0	0	0
184	1	1	0.0	0.0	158.61662348876789	0	0	0
185	1	1	0.0	-0.49999999999999994	159.48264889255233	0	0	0
186	1	1	0.0	0.0	160.34867429633678	0	0	0
187	1	1	0.0	-0.49999999999999994	161.21469970012123	0	0	0
188	1	1	0.0	0.0	162.08072510390568	0	0	0
189	1	1	0.0	-0.49999999999999994	162.94675050769013	0	0	0
190	1	1	0.0	0.0	163.81277591147457	0	0	0
191	1	1	0.0	-0.49999999999999994	164.67880131525902	0	0	0
192	1	1	0.0	0.0	165.54482671904347	0	0	0
193	1	1	0.0	-0.49999999999999994	166.41085212282792	0	0	0
194	1	1	0.0	0.0	167.27687752661237	0	0	0
195	1	1	0.0	-0.49999999999999994	168.14290293039682	0	0	0
196	1	1	0.0	0.0	169.00892833418126	0	0	0
197	1	1	0.0	-0.49999999999999994	169.8749537379657	0	0	0
198	1	1	0.0	0.0	170.74097914175016	0	0	0
199	1	1	0.0	-0.49999999999999994	171.6070045455346	0	0	0
200	1	1	0.0	0.0	172.47302994931906	0	0	0
201	1	1	0.0	-0.49999999999999994	173.3390553531035	0	0	0
202	1	1	0.0	0.0	174.20508075688795	0	0	0
203	1	1	0.0	-0.49999999999999994	175.0711061606724	0	0	0
204	1	1	0.0	0.0	175.93713156445685	0	0	0
205	1	1	0.0	-0.49999999999999994	176.8031569682413	0	0	0
206	1	1	0.0	0.0	177.66918237202574	0	0	0
207	1	1	0.0	-0.49999999999999994	178.5352077758102	0	0	0
208	1	1	0.0	0.0	179.40123317959464	0	0	0
209	1	1	0.0	-0.49999999999999994	180.2672585833791	0	0	0
210	1	1	0.0	0.0	181.13328398716354	0	0	0
211	1	1	0.0	-0.49999999999999994	181.99930939094799	0	0	0
212	1	1	0.0	0.0	182.86533479473243	0	0	0
213	1	1	0.0	-0.49999999999999994	183.73136019851688	0	0	0
214	1	1	0.0	0.0	184.59738560230133	0	0	0
215	1	1	0.0	-0.49999999999999994	185.46341100608578	0	0	0
216	1	1	0.0	0.0	186.32943640987023	0	0	0
217	1	1	0.0	-0.49999999999999994	187.19546181365467	0	0	0
218	1	1	0.0	0.0	188.06148721743912	0	0	0
219	1	1	0.0	-0.49999999999999994	188.92751262122357	0	0	0
220	1	1	0.0	0.0	189.79353802500802	0	0	0
221	1	1	0.0	-0.49999999999999994	190.65956342879247	0	0	0
222	1	1	0.0	0.0	191.52558883257691	0	0	0
223	1	1	0.0	-0.49999999999999994	192.39161423636136	0	0	0
224	1	1	0.0	0.0	193.2576396401458	0	0	0
225	1	1	0.0	-0.49999999999999994	194.12366504393026	0	0	0
226	1	1	0.0	0.0	194.9896904477147	0	0	0
227	1	1	0.0	-0.49999999999999994	195.85571585149916	0	0	0
228	1	1	0.0	0.0	196.7217412552836	0	0	0
229	1	1	0.0	-0.49999999999999994	197.58776665906805	0	0	0
230	1	1	0.0	0.0	198.4537920628525	0	0	0
231	1	1	0.0	-0.49999999999999994	199.31981746663695	0	0	0
232	1	1	0.0	0.0	200.1858428704214	0	0	0
233	1	1	0.0	-0.49999999999999994	201.05186827420584	0	0	0
234	1	1	0.0	0.0	201.9178936779903	0	0	0
235	1	1	0.0	-0.49999999999999994	202.78391908177474	0	0	0
236	1	1	0.0	0.0	203.6499444855592	0	0	0
237	1	1	0.0	-0.49999999999999994	204.51596988934364	0	0	0
238	1	1	0.0	0.0	205.38199529312809	0	0	0
239	1	1	0.0	-0.49999999999999994	206.24802069691253	0	0	0
240	1	1	0.0	0.0	207.11404610069698	0	0	0
241	1	1	0.0	-0.49999999999999994	207.98007150448143	0	0	0
242	1	1	0.0	0.0	208.84609690826588	0	0	0
243	1	1	0.0	-0.49999999999999994	209.71212231205033	0	0	0
244	1	1	0.0	0.0	210.57814771583477	0	0	0
245	1	1	0.0	-0.49999999999999994	211.44417311961922	0	0	0
246	1	1	0.0	0.0	212.31019852340367	0	0	0
247	1	1	0.0	-0.49999999999999994	213.17622392718812	0	0	0
248	1	1	0.0	0.0	214.04224933097257	0	0	0
249	1	1	0.0	-0.49999999999999994	214.90827473475701	0	0	0
250	1	1	0.0	0.0	215.77430013854146	0	0	0
251	1	1	0.0	-0.49999999999999994	216.6403255423259	0	0	0
252	1	1	0.0	0.0	217.50635094611036	0	0	0
253	1	1	0.0	-0.49999999999999994	218.3723763498948	0	0	0
254	1	1	0.0	0.0	219.23840175367926	0	0	0
255	1	1	0.0	-0.49999999999999994	220.1044271574637	0	0	0
256	1	1	0.0	0.0	220.97045256124815	0	0	0
257	1	1	0.0	-0.49999999999999994	221.8364779650326	0	0	0
258	1	1	0.0	0.0	222.70250336881705	0	0	0
259	1	1	0.0	-0.49999999999999994	223.5685287726015	0	0	0
260	1	1	0.0	0.0	224.43455417638594	0	0	0
261	1	1	0.0	-0.49999999999999994	225.3005795801704	0	0	0
262	1	1	0.0	0.0	226.16660498395484	0	0	0
263	1	1	0.0	-0.49999999999999994	227.0326303877393	0	0	0
264	1	1	0.0	0.0	227.89865579152374	0	0	0
265	1	1	0.0	-0.49999999999999994	228.76468119530819	0	0	0
266	1	1	0.0	0.0	229.63070659909263	0	0	0
267	1	1	0.0	-0.49999999999999994	230.49673200287708	0	0	0
268	1	1	0.0	0.0	231.36275740666153	0	0	0
269	1	1	0.0	-0.49999999999999994	232.22878281044598	0	0	0
270	1	1	0.0	0.0	233.09480821423043	0	0	0
271	1	1	0.0	-0.49999999999999994	233.96083361801487	0	0	0
272	1	1	0.0	0.0	234.82685902179932	0	0	0
273	1	1	0.0	-0.49999999999999994	235.69288442558377	0	0	0
274	1	1	0.0	0.0	236.55890982936822	0	0	0
275	1	1	0.0	-0.49999999999999994	237.42493523315267	0	0	0
276	1	1	0.0	0.0	238.29096063693711	0	0	0
277	1	1	0.0	-0.49999999999999994	239.15698604072156	0	0	0
278	1	1	0.0	0.0	240.023011444506	0	0	0
279	1	1	0.0	-0.49999999999999994	240.88903684829046	0	0	0
280	1	1	0.0	0.0	241.7550622520749	0	0	0
281	1	1	0.0	-0.49999999999999994	242.62108765585936	0	0	0
282	1	1	0.0	0.0	243.4871130596438	0	0	0
283	1	1	0.0	-0.49999999999999994	244.35313846342825	0	0	0
284	1	1	0.0	0.0	245.2191638672127	0	0	0
285	1	1	0.0	-0.49999999999999994	246.08518927099715	0	0	0
286	1	1	0.0	0.0	246.9512146747816	0	0	0
287	1	1	0.0	-0.49999999999999994	247.81724007856604	0	0	0
288	1	1	0.0	0.0	248.6832654823505	0	0	0
289	1	1	0.0	-0.49999999999999994	249.54929088613494	0	0	0
290	1	1	0.0	0.0	250.4153162899194	0	0	0
291	1	1	0.0	-0.49999999999999994	251.28134169370384	0	0	0
292	1	1	0.0	0.0	252.14736709748829	0	0	0
293	1	1	0.0	-0.49999999999999994	253.01339250127273	0	0	0
294	1	1	0.0	0.0	253.87941790505718	0	0	0
295	1	1	0.0	-0.49999999999999994	254.74544330884163	0	0	0
296	1	1	0.0	0.0	255.61146871262608	0	0	0
297	1	1	0.0	-0.49999999999999994	256.4774941164105	0	0	0
298	1	1	0.0	0.0	257.34351952019495	0	0	0
299	1	1	0.0	-0.49999999999999994	258.20954492397937	0	0	0
300	1	1	0.0	0.0	259.0755703277638	0	0	0
301	1	1	0.0	-0.49999999999999994	259.9415957315482	0	0	0
302	1	1	0.0	0.0	260.8076211353326	0	0	0
303	1	1	0.0	-0.49999999999999994	261.67364653911704	0	0	0
304	1	1	0.0	0.0	262.53967194290146	0	0	0
305	1	1	0.0	-0.49999999999999994	263.4056973466859	0	0	0
306	1	1	0.0	0.0	264.2717227504703	0	0	0
307	1	1	0.0	-0.49999999999999994	265.1377481542547	0	0	0
308	1	1	0.0	0.0	266.00377355803914	0	0	0
309	1	1	0.0	-0.49999999999999994	266.86979896182356	0	0	0
310	1	1	0.0	0.0	267.735824365608	0	0	0
311	1	1	0.0	-0.49999999999999994	268.6018497693924	0	0	0
312	1	1	0.0	0.0	269.4678751731768	0	0	0
313	1	1	0.0	-0.49999999999999994	270.33390057696124	0	0	0
314	1	1	0.0	0.0	271.19992598074566	0	0	0
315	1	1	0.0	-0.49999999999999994	272.0659513845301	0	0	0
316	1	1	0.0	0.0	272.9319767883145	0	0	0
317	1	1	0.0	-0.49999999999999994	273.7980021920989	0	0	0
318	1	1	0.0	0.0	274.66402759588334	0	0	0
319	1	1	0.0	-0.49999999999999994	275.53005299966776	0	0	0
320	1	1	0.0	0.0	276.3960784034522	0	0	0
321	1	1	0.0	-0.49999999999999994	277.2621038072366	0	0	0
322	1	1	0.0	0.0	278.128129211021	0	0	0
323	1	1	0.0	-0.49999999999999994	278.99415461480544	0	0	0
324	1	1	0.0	0.0	279.86018001858986	0	0	0
325	1	1	0.0	-0.49999999999999994	280.7262054223743	0	0	0
326	1	1	0.0	0.0	281.5922308261587	0	0	0
327	1	1	0.0	-0.49999999999999994	282.4582562299431	0	0	0
328	1	1	0.0	0.0	283.32428163372754	0	0	0
329	1	1	0.0	-0.49999999999999994	284.19030703751196	0	0	0
330	1	1	0.0	0.0	285.0563324412964	0	0	0
331	1	1	0.0	-0.49999999999999994	285.9223578450808	0	0	0
332	1	1	0.0	0.0	286.7883832488652	0	0	0
333	1	1	0.0	-0.49999999999999994	287.65440865264964	0	0	0
334	1	1	0.0	0.0	288.52043405643406	0	0	0
335	1	1	0.0	-0.49999999999999994	289.3864594602185	0	0	0
336	1	1	0.0	0.0	290.2524848640029	0	0	0
337	1	1	0.0	-0.49999999999999994	291.1185102677873	0	0	0
338	1	1	0.0	0.0	291.98453567157173	0	0	0
339	1	1	0.0	-0.49999999999999994	292.85056107535615	0	0	0
340	1	1	0.0	0.0	293.7165864791406	0	0	0
341	1	1	0.0	-0.49999999999999994	294.582611882925	0	0	0
342	1	1	0.0	0.0	295.4486372867094	0	0	0
343	1	1	0.0	-0.49999999999999994	296.31466269049383	0	0	0
344	1	1	0.0	0.0	297.18068809427825	0	0	0
345	1	1	0.0	-0.49999999999999994	298.0467134980627	0	0	0
346	1	1	0.0	0.0	298.9127389018471	0	0	0
347	1	1	0.0	-0.49999999999999994	299.7787643056315	0	0	0
348	1	1	0.0	0.0	300.64478970941593	0	0	0
349	1	1	0.0	-0.49999999999999994	301.51081511320035	0	0	0
350	1	1	0.0	0.0	302.37684051698477	0	0	0
351	1	1	0.0	-0.49999999999999994	303.2428659207692	0	0	0
352	1	1	0.0	0.0	304.1088913245536	0	0	0
353	1	1	0.0	-0.49999999999999994	304.97491672833803	0	0	0
354	1	1	0.0	0.0	305.84094213212245	0	0	0
355	1	1	0.0	-0.49999999999999994	306.70696753590687	0	0	0
356	1	1	0.0	0.0	307.5729929396913	0	0	0
357	1	1	0.0	-0.49999999999999994	308.4390183434757	0	0	0
358	1	1	0.0	0.0	309.30504374726013	0	0	0
359	1	1	0.0	-0.49999999999999994	310.17106915104455	0	0	0
360	1	1	0.0	0.0	311.03709455482897	0	0	0
361	1	1	0.0	-0.49999999999999994	311.9031199586134	0	0	0
362	1	1	0.0	0.0	312.7691453623978	0	0	0
363	1	1	0.0	-0.49999999999999994	313.6351707661822	0	0	0
364	1	1	0.0	0.0	314.50119616996665	0	0	0
365	1	1	0.0	-0.49999999999999994	315.36722157375107	0	0	0
366	1	1	0.0	0.0	316.2332469775355	0	0	0
367	1	1	0.0	-0.49999999999999994	317.0992723813199	0	0	0
368	1	1	0.415087167016447	-1.408237785935806	317.1522513203113	0	0	0
369	1	1	0.8301743340329009	-2.2212842507288504	316.7440135343754	0	0	0
370	1	1	1.2452615010493546	-2.9813517765305138	317.2440135343754	0	0	0
371	1	1	1.6603486680658084	-3.794398241323558	316.8357757484396	0	0	0
372	1	1	2.075435835082262	-4.5544657671252216	317.3357757484396	0	0	0
373	1	1	2.490523002098716	-5.367512231918266	316.9275379625037	0	0	0
374	1	1	2.9056101691151697	-6.127579757719929	317.4275379625037	0	0	0
375	1	1	3.3206973361316234	-6.940626222512974	317.01930017656787	0	0	0
376	1	1	3.735784503148077	-7.700693748314637	317.51930017656787	0	0	0
377	1	1	4.150871670164531	-8.513740213107681	317.111062390632	0	0	0
378	1	1	4.565958837180985	-9.273807738909344	317.611062390632	0	0	0
379	1	1	4.981046004197439	-10.086854203702389	317.20282460469616	0	0	0
380	1	1	5.396133171213893	-10.846921729504052	317.70282460469616	0	0	0
381	1	1	5.8112203382303464	-11.659968194297097	317.2945868187603	0	0	0
382	1	1	6.2263075052468	-12.42003572009876	317.7945868187603	0	0	0
383	1	1	6.641394672263254	-13.233082184891805	317.38634903282446	0	0	0
384	1	1	7.056481839279708	-13.993149710693467	317.88634903282446	0	0	0
385	1	1	7.4715690062961615	-14.806196175486512	317.4781112468886	0	0	0
386	1	1	7.886656173312615	-15.566263701288175	317.9781112468886	0	0	0
387	1	1	8.30174334032907	-16.37931016608122	317.56987346095275	0	0	0
388	1	1	8.716830507345524	-17.13937769188288	318.06987346095275	0	0	0
389	1	1	9.131917674361977	-17.952424156675924	317.6616356750169	0	0	0
390	1	1	9.547004841378431	-18.712491682477587	318.1616356750169	0	0	0
391	1	1	9.962092008394885	-19.52553814727063	317.75339788908104	0	0	0
392	1	1	10.377179175411339	-20.285605673072293	318.25339788908104	0	0	0
393	1	1	10.792266342427792	-21.098652137865336	317.8451601031452	0	0	0
394	1	1	11.207353509444246	-21.858719663667	318.3451601031452	0	0	0
395	1	1	11.6224406764607	-22.671766128460042	317.93692231720934	0	0	0
396	1	1	12.037527843477154	-23.431833654261705	318.43692231720934	0	0	0
397	1	1	12.452615010493608	-24.24488011905475	318.0286845312735	0	0	0
398	1	1	12.867702177510061	-25.00494764485641	318.5286845312735	0	0	0
399	1	1	13.282789344526515	-25.817994109649455	318.12044674533763	0	0	0
400	1	1	13.697876511542969	-26.578061635451117	318.62044674533763	0	0	0
401	1	1	14.112963678559423	-27.39110810024416	318.2122089594018	0	0	0
402	1	1	14.528050845575876	-28.151175626045823	318.7122089594018	0	0	0
403	1	1	14.94313801259233	-28.964222090838867	318.3039711734659	0	0	0
404	1	1	15.358225179608784	-29.72428961664053	318.8039711734659	0	0	0
405	1	1	15.773312346625238	-30.537336081433573	318.3957333875301	0	0	0
406	1	1	16.18839951364169	-31.297403607235236	318.8957333875301	0	0	0
407	1	1	16.603486680658147	-32.11045007202828	318.4874956015942	0	0	0
408	1	1	17.018573847674602	-32.870517597829945	318.9874956015942	0	0	0
409	1	1	17.433661014691058	-33.68356406262299	318.57925781565837	0	0	0
410	1	1	17.848748181707514	-34.44363158842466	319.07925781565837	0	0	0
411	1	1	18.26383534872397	-35.256678053217705	318.6710200297225	0	0	0
412	1	1	18.678922515740425	-36.01674557901937	319.1710200297225	0	0	0
413	1	1	19.09400968275688	-36.82979204381242	318.76278224378666	0	0	0
414	1	1	19.509096849773336	-37.589859569614084	319.26278224378666	0	0	0
415	1	1	19.92418401678979	-38.40290603440713	318.8545444578508	0	0	0
416	1	1	20.339271183806247	-39.1629735602088	319.3545444578508	0	0	0
417	1	1	20.754358350822702	-39.976020025001844	318.94630667191495	0	0	0
418	1	1	21.169445517839158	-40.73608755080351	319.44630667191495	0	0	0
419	1	1	21.584532684855613	-41.54913401559656	319.0380688859791	0	0	0
420	1	1	21.99961985187207	-42.309201541398224	319.5380688859791	0	0	0
421	1	1	22.414707018888524	-43.12224800619127	319.12983110004325	0	0	0
422	1	1	22.82979418590498	-43.88231553199294	319.62983110004325	0	0	0
423	1	1	23.244881352921436	-44.695361996785984	319.2215933141074	0	0	0
424	1	1	23.65996851993789	-45.45542952258765	319.7215933141074	0	0	0
425	1	1	24.075055686954347	-46.2684759873807	319.31335552817154	0	0	0
426	1	1	24.490142853970802	-47.02854351318236	319.81335552817154	0	0	0
427	1	1	24.905230020987258	-47.84158997797541	319.4051177422357	0	0	0
428	1	1	25.320317188003713	-48.601657503777076	319.9051177422357	0	0	0
429	1	1	25.73540435502017	-49.41470396857012	319.49687995629984	0	0	0
430	1	1	26.150491522036624	-50.17477149437179	319.99687995629984	0	0	0
431	1	1	26.56557868905308	-50.987817959164836	319.588642170364	0	0	0
432	1	1	26.980665856069535	-51.7478854849665	320.088642170364	0	0	0
433	1	1	27.39575302308599	-52.56093194975955	319.68040438442813	0	0	0
434	1	1	27.810840190102446	-53.320999475561216	320.18040438442813	0	0	0
435	1	1	28.225927357118902	-54.13404594035426	319.7721665984923	0	0	0
436	1	1	28.641014524135358	-54.89411346615593	320.2721665984923	0	0	0
437	1	1	29.056101691151813	-55.707159930948976	319.8639288125564	0	0	0
438	1	1	29.47118885816827	-56.46722745675064	320.3639288125564	0	0	0
439	1	1	29.886276025184724	-57.28027392154369	319.95569102662057	0	0	0
440	1	1	30.30136319220118	-58.040341447345355	320.45569102662057	0	0	0
441	1	1	30.716450359217635	-58.8533879121384	320.0474532406847	0	0	0
442	1	1	31.13153752623409	-59.61345543794007	320.5474532406847	0	0	0
443	1	1	31.546624693250546	-60.426501902733115	320.13921545474886	0	0	0
444	1	1	31.961711860267002	-61.18656942853478	320.63921545474886	0	0	0
445	1	1	32.376799027283454	-61.99961589332783	320.230977668813	0	0	0
446	1	1	32.791886194299906	-62.759683419129495	320.730977668813	0	0	0
447	1	1	33.20697336131636	-63.57272988392254	320.32273988287716	0	0	0
448	1	1	33.62206052833281	-64.33279740972421	320.82273988287716	0	0	0
449	1	1	34.03714769534926	-65.14584387451725	320.4145020969413	0	0	0
450	1	1	34.452234862365714	-65.90591140031891	320.9145020969413	0	0	0
451	1	1	34.867322029382166	-66.71895786511196	320.50626431100545	0	0	0
452	1	1	35.28240919639862	-67.47902539091362	321.00626431100545	0	0	0
453	1	1	35.69749636341507	-68.29207185570667	320.5980265250696	0	0	0
454	1	1	36.11258353043152	-69.05213938150833	321.0980265250696	0	0	0
455	1	1	36.527670697447974	-69.86518584630137	320.68978873913375	0	0	0
456	1	1	36.942757864464426	-70.62525337210303	321.18978873913375	0	0	0
457	1	1	37.35784503148088	-71.43829983689608	320.7815509531979	0	0	0
458	1	1	37.77293219849733	-72.19836736269774	321.2815509531979	0	0	0
459	1	1	38.18801936551378	-73.01141382749078	320.87331316726204	0	0	0
460	1	1	38.603106532530234	-73.77148135329244	321.37331316726204	0	0	0
461	1	1	39.018193699546686	-74.58452781808549	320.9650753813262	0	0	0
462	1	1	39.43328086656314	-75.34459534388715	321.4650753813262	0	0	0
463	1	1	39.84836803357959	-76.1576418086802	321.05683759539033	0	0	0
464	1	1	40.26345520059604	-76.91770933448186	321.55683759539033	0	0	0
465	1	1	40.67854236761249	-77.7307557992749	321.1485998094545	0	0	0
466	1	1	41.093629534628946	-78.49082332507656	321.6485998094545	0	0	0
467	1	1	41.5087167016454	-79.30386978986961	321.2403620235186	0	0	0
468	1	1	41.92380386866185	-80.06393731567127	321.7403620235186	0	0	0
469	1	1	42.3388910356783	-80.87698378046431	321.3321242375828	0	0	0
470	1	1	42.75397820269475	-81.63705130626597	321.8321242375828	0	0	0
471	1	1	43.169065369711205	-82.45009777105902	321.4238864516469	0	0	0
472	1	1	43.58415253672766	-83.21016529686068	321.9238864516469	0	0	0
473	1	1	43.99923970374411	-84.02321176165373	321.51564866571107	0	0	0
474	1	1	44.41432687076056	-84.78327928745539	322.01564866571107	0	0	0
475	1	1	44.82941403777701	-85.59632575224843	321.6074108797752	0	0	0
476	1	1	45.244501204793465	-86.35639327805009	322.1074108797752	0	0	0
477	1	1	45.65958837180992	-87.16943974284314	321.69917309383936	0	0	0
478	1	1	46.07467553882637	-87.9295072686448	322.19917309383936	0	0	0
479	1	1	46.48976270584282	-88.74255373343784	321.7909353079035	0	0	0
480	1	1	46.90484987285927	-89.5026212592395	322.2909353079035	0	0	0
481	1	1	47.319937039875725	-90.31566772403255	321.88269752196766	0	0	0
482	1	1	47.73502420689218	-91.07573524983421	322.38269752196766	0	0	0
483	1	1	48.15011137390863	-91.88878171462726	321.9744597360318	0	0	0
484	1	1	48.56519854092508	-92.64884924042892	322.4744597360318	0	0	0
485	1	1	48.98028570794153	-93.46189570522196	322.06622195009595	0	0	0
486	1	1	49.395372874957985	-94.22196323102362	322.56622195009595	0	0	0
487	1	1	49.81046004197444	-95.03500969581667	322.1579841641601	0	0	0
488	1	1	50.22554720899089	-95.79507722161833	322.6579841641601	0	0	0
489	1	1	50.64063437600734	-96.60812368641137	322.24974637822424	0	0	0
490	1	1	51.05572154302379	-97.36819121221303	322.74974637822424	0	0	0
491	1	1	51.470808710040245	-98.18123767700608	322.3415085922884	0	0	0
492	1	1	51.8858958770567	-98.94130520280774	322.8415085922884	0	0	0
493	1	1	52.30098304407315	-99.75435166760079	322.43327080635254	0	0	0
494	1	1	52.7160702110896	-100.51441919340245	322.93327080635254	0	0	0
495	1	1	53.13115737810605	-101.32746565819549	322.5250330204167	0	0	0
496	1	1	53.546244545122505	-102.08753318399715	323.0250330204167	0	0	0
497	1	1	53.96133171213896	-102.9005796487902	322.61679523448083	0	0	0
498	1	1	54.37641887915541	-103.66064717459186	323.11679523448083	0	0	0
499	1	1	54.79150604617186	-104.4736936393849	322.708557448545	0	0	0
500	1	1	55.20659321318831	-105.23376116518656	323.208557448545	0	0	0
501	1	1	55.621680380204765	-106.04680762997961	322.8003196626091	0	0	0
502	1	1	56.03676754722122	-106.80687515578127	323.3003196626091	0	0	0
503	1	1	56.45185471423767	-107.61992162057432	322.8920818766733	0	0	0
504	1	1	56.86694188125412	-108.37998914637598	323.3920818766733	0	0	0
505	1	1	57.28202904827057	-109.19303561116902	322.9838440907374	0	0	0
506	1	1	57.697116215287025	-109.95310313697068	323.4838440907374	0	0	0
507	1	1	58.11220338230348	-110.76614960176373	323.07560630480157	0	0	0
508	1	1	58.52729054931993	-111.52621712756539	323.57560630480157	0	0	0
509	1	1	58.94237771633638	-112.33926359235844	323.1673685188657	0	0	0
510	1	1	59.35746488335283	-113.0993311181601	323.6673685188657	0	0	0
511	1	1	59.772552050369285	-113.91237758295314	323.25913073292986	0	0	0
512	1	1	60.18763921738574	-114.6724451087548	323.75913073292986	0	0	0
513	1	1	60.60272638440219	-115.48549157354785	323.350892946994	0	0	0
514	1	1	61.01781355141864	-116.2455590993495	323.850892946994	0	0	0
515	1	1	61.43290071843509	-117.05860556414255	323.44265516105816	0	0	0
516	1	1	61.847987885451545	-117.81867308994421	323.94265516105816	0	0	0
517	1	1	62.263075052468	-118.63171955473726	323.5344173751223	0	0	0
518	1	1	62.67816221948445	-119.39178708053892	324.0344173751223	0	0	0
519	1	1	63.0932493865009	-120.20483354533197	323.62617958918645	0	0	0
520	1	1	63.50833655351735	-120.96490107113362	324.12617958918645	0	0	0
521	1	1	63.923423720533805	-121.77794753592667	323.7179418032506	0	0	0
522	1	1	64.33851088755026	-122.53801506172833	324.2179418032506	0	0	0
523	1	1	64.75359805456671	-123.35106152652138	323.80970401731474	0	0	0
524	1	1	65.16868522158316	-124.11112905232304	324.30970401731474	0	0	0
525	1	1	65.58377238859961	-124.92417551711608	323.9014662313789	0	0	0
526	1	1	65.99885955561606	-125.68424304291774	324.4014662313789	0	0	0
527	1	1	66.41394672263252	-126.49728950771079	323.99322844544304	0	0	0
528	1	1	66.82903388964897	-127.25735703351245	324.49322844544304	0	0	0
529	1	1	67.24412105666542	-128.0704034983055	324.0849906595072	0	0	0
530	1	1	67.65920822368187	-128.83047102410717	324.5849906595072	0	0	0
531	1	1	68.07429539069832	-129.64351748890022	324.17675287357133	0	0	0
532	1	1	68.48938255771478	-130.4035850147019	324.67675287357133	0	0	0
533	1	1	68.90446972473123	-131.21663147949494	324.2685150876355	0	0	0
534	1	1	69.31955689174768	-131.9766990052966	324.7685150876355	0	0	0
535	1	1	69.73464405876413	-132.78974547008966	324.3602773016996	0	0	0
536	1	1	70.14973122578058	-133.54981299589133	324.8602773016996	0	0	0
537	1	1	70.56481839279704	-134.36285946068438	324.4520395157638	0	0	0
538	1	1	70.97990555981349	-135.12292698648605	324.9520395157638	0	0	0