#atom_style bond #no stiffness
atom_style angle #with stiffness

boundary        p p p
###
# Pair interactions require lists of neighbours to be calculated
###

#neighbor 0.3 bin
neighbor 4 bin

neigh_modify every 1 delay 1 check yes
atom_modify sort 0 0
### Generate RESTART file, SPECIAL format, not a .txt file ###
### Useful if simulation crashes ###

restart 1000000 plusshaped/restarts/$f.restart
restart 1000000 plusshaped/restarts/bb551nuc1bl275bn4d30tot1100.restart
#############################



### READ "start" data file ###

read_data plusshaped/$f.dat
read_data plusshaped/bb551nuc1bl275bn4d30tot1100.dat
Reading data file ...
  orthogonal box = (-1000 -1000 -1000) to (1000 1000 1000)
  1 by 1 by 1 MPI processor grid
  reading atoms ...
  1101 atoms
  scanning bonds ...
  3 = max bonds/atom
  scanning angles ...
  6 = max angles/atom
  reading bonds ...
  1100 bonds
  reading angles ...
  1102 angles
Finding 1-2 1-3 1-4 neighbors ...
  special bond factors lj:    0        0        0       
  special bond factors coul:  0        0        0       
     4 = max # of 1-2 neighbors
     4 = max # of 1-3 neighbors
     8 = max # of 1-4 neighbors
    12 = max # of special neighbors
  special bonds CPU = 0.001 seconds
  read_data CPU = 0.088 seconds

######################

### READ "REstart" data file ###

######################



###
# Define groups (atom type 1 is group 'all')
###
group all type 1
1101 atoms in group all


###
# Dump configs - "simple dumpings"
###

###
# Dump configs + box coords
###

dump   1   all   custom   1000  plusshaped/trjs/$f.lammpstrj  id  x y z  ix iy iz
dump   1   all   custom   1000  plusshaped/trjs/bb551nuc1bl275bn4d30tot1100.lammpstrj  id  x y z  ix iy iz
dump_modify   1   format line "%d %.5f %.5f %.5f %d %d %d"

########################################################################


###################################################################
# Stiffness term
#
# E = K * (1+cos(theta)), K>0
#
angle_style   cosine
#change this coefficient to change stiffness (e.g. 1,5,10)
angle_coeff   1 1.0
###################################################################

###################################################################
# Pair interaction between non-bonded atoms
#
#  Lennard-Jones 12-6 potential with cutoff:
#  potential E=4epsilon[ (sigma/r)^12 - (sigma/r)^6]  for r<r_cut
#
#  1.12246 = 2^(1/6) is the minimum of the potential


pair_style      lj/cut 1.12246152962189
#pair_style      lj/cut 3

#
#  pair_modify shift yes adds a constant to the potential such

#  that E(r_cut)=0. Forces remains unchanged.
#

pair_modify     shift yes

#
#  pair_coeff for lj/cut, specify 4:
#    * atom type interacting with
#    * atom type
#    * epsilon (energy units)
#    * sigma (distance units)
#

pair_coeff      1 1 1.0 1.0
###################################################################

###################################################################
# Pair interaction between non-bonded atoms
#
#  soft potential, for PUSHING apart overlapping atoms
#  potential E=A*(1 + cos(pi*r/r_c))
#
#  1.12246 = 2^(1/6) is the cut-off r_c

#pair_style     soft 1.12246152962189

#
#  pair_coeff for soft, specify 3:
#    * atom type interacting with
#    * atom type
#    * A
#
#

#pair_coeff      1 1 100.0
###################################################################

###################################################################
# Pair interaction between bonded atoms
#
# Fene potential + Lennard Jones 12-6:

#
#  E= - 0.5 K R0^2 ln[ 1- (r/R0)^2]
#     + 4epsilon[ (sigma/r)^12 - (sigma/r)^6] + epsilon
#

bond_style   fene


#
# For style fene, specify:
#   * bond type
#   * K (energy/distance^2)
#   * R0 (distance)
#   * epsilon (energy)  (LJ component)
#   * sigma (distance)  (LJ component)
#


special_bonds fene #<=== I M P O R T A N T (new command)
Finding 1-2 1-3 1-4 neighbors ...
  special bond factors lj:    0        1        1       
  special bond factors coul:  0        1        1       
     4 = max # of 1-2 neighbors
    12 = max # of special neighbors
  special bonds CPU = 0.000 seconds

bond_coeff   1   30   2   1.0   1.0


###################################################

###################################################################
# Pair interaction between bonded atoms
#
# Harmonic potential:
#
#  E= K * (R-R0)^2
#

#bond_style   harmonic

#
# For style harmonic, specify:
#   * bond type
#   * K (energy/distance^2)
#   * R0 (distance)
#

#bond_coeff   1   60.0   1.0
#bond_coeff   2   harmonic 0.1   1.0

###################################################
compute 1 all gyration
variable rog equal c_1
#compute 2 all coord/atom cutoff 1.1

#dump 2 all custom 10000 contact_number.dump id c_2


###
# Set up fixes
###
thermo_style   custom   step  temp enthalpy c_1
fix 1 all nve   ###NVE ensemble

fix 2 all   langevin   1.0 1.0 1.0  100103   ###Langevin integrator Tstart Tstop 1/friction rndseed


##### Sample thermodynamic info  (temperature, energy, pressure, etc.) #####
thermo 1000









############################################################################

###
# set timestep of integrator

timestep 0.01

###
# run integration for a number of steps
###
#run 0
#variable r equal c_1
#if "$r < 63.1" then "quit 1"

# lj potential minimum, cause molecule to explore
run 100000
Generated 0 of 0 mixed pair_coeff terms from geometric mixing rule
Neighbor list info ...
  update: every = 1 steps, delay = 1 steps, check = yes
  max neighbors/atom: 2000, page size: 100000
  master list distance cutoff = 5.1224615
  ghost atom cutoff = 5.1224615
  binsize = 2.5612308, bins = 781 781 781
  1 neighbor lists, perpetual/occasional/extra = 1 0 0
  (1) pair lj/cut, perpetual
      attributes: half, newton on
      pair build: half/bin/newton
      stencil: half/bin/3d
      bin: standard
WARNING: Communication cutoff 5.12246152962189 is shorter than a bond length based estimate of 5.455. This may lead to errors. (src/comm.cpp:723)
Per MPI rank memory allocation (min/avg/max) = 1861 | 1861 | 1861 Mbytes
   Step          Temp         Enthalpy         c_1      
         0   0              13.163119      144.49757    
      1000   1.0145132      17.786727      143.97886    
      2000   0.99836794     17.608004      143.22926    
      3000   1.0235091      17.907617      142.63459    
      4000   0.99682594     17.677086      142.21538    
      5000   1.0011913      18.214703      141.55481    
      6000   1.0060168      18.430027      141.2198     
      7000   1.0356648      18.625709      140.68619    
      8000   0.97849594     18.299122      140.3003     
      9000   0.98196343     18.443194      140.11479    
     10000   0.98094348     18.285011      139.67281    
     11000   0.96803329     18.956552      139.4255     
     12000   0.9762882      18.602234      138.94997    
     13000   0.96981731     18.723767      138.43629    
     14000   0.98846404     18.328457      138.09354    
     15000   1.0032407      18.721118      137.69761    
     16000   1.0073354      18.107123      137.39007    
     17000   1.0089068      18.335691      137.00236    
     18000   0.99719584     19.23747       136.65564    
     19000   1.0244375      19.223628      136.39414    
     20000   1.016532       19.053926      136.10393    
     21000   1.0107284      18.951302      135.72554    
     22000   1.0078731      18.727295      135.42299    
     23000   1.0089019      19.597254      135.20813    
     24000   1.0417615      19.289394      135.0888     
     25000   1.0267035      19.267829      134.60719    
     26000   0.97206295     19.15497       134.31565    
     27000   1.0031014      19.0279        133.9372     
     28000   1.0094337      19.042057      133.58257    
     29000   1.0038474      19.137993      133.12977    
     30000   1.0122386      18.823361      132.95133    
     31000   0.97714976     19.373273      132.84099    
     32000   1.0272179      19.451521      132.6538     
     33000   1.0165089      19.403847      132.44759    
     34000   1.0076822      19.385341      132.11223    
     35000   1.0225661      19.48621       131.75026    
     36000   1.0292705      19.036802      131.48213    
     37000   1.0626874      19.839761      131.03378    
     38000   1.0518076      18.885573      130.84833    
     39000   0.94645975     19.295286      130.76469    
     40000   0.96448629     19.091085      130.51472    
     41000   1.0237901      19.380102      130.39925    
     42000   1.0300479      19.491965      130.07771    
     43000   0.99614675     19.241482      130.08354    
     44000   1.0207268      19.532211      129.78336    
     45000   1.0046509      19.583129      129.43571    
     46000   0.98127566     19.364542      129.22314    
     47000   1.0231232      19.903851      128.98575    
     48000   0.98480032     19.561562      128.71471    
     49000   1.0191947      19.319963      128.72278    
     50000   1.0076018      19.544459      128.47096    
     51000   1.0315505      19.599654      128.30532    
     52000   0.95402324     19.228514      128.14199    
     53000   1.0383003      19.517119      127.99287    
     54000   1.0222327      19.505222      127.57525    
     55000   0.98366192     19.217478      127.45949    
     56000   0.99959108     20.07425       127.27496    
     57000   0.99486934     19.425989      127.1481     
     58000   0.97796367     19.598032      127.22573    
     59000   1.0372148      19.526949      127.03492    
     60000   1.0105292      19.857222      126.82179    
     61000   1.0229761      19.631513      126.53767    
     62000   0.99326579     19.387446      126.05005    
     63000   1.0197955      19.469828      125.62696    
     64000   0.93715879     19.255667      125.33945    
     65000   0.99953424     19.595728      125.26342    
     66000   1.0149372      19.665058      125.01625    
     67000   0.96768976     19.368468      124.87095    
     68000   0.99561436     19.665111      124.70763    
     69000   1.0389915      19.613435      124.413      
     70000   1.0351058      19.782289      124.17316    
     71000   1.0062307      19.412286      123.8961     
     72000   0.95756634     19.817289      123.56038    
     73000   1.0130051      19.675468      123.61724    
     74000   1.0147163      20.204214      123.53777    
     75000   1.0077011      19.576069      123.23816    
     76000   0.99716854     19.563412      123.30082    
     77000   1.0115112      19.174905      123.27943    
     78000   1.0091362      19.768659      123.18879    
     79000   1.0083114      19.694698      123.0804     
     80000   1.0266216      19.599205      122.92203    
     81000   1.0078353      19.776723      122.79155    
     82000   1.0227511      19.657615      122.49598    
     83000   0.94171617     19.846833      122.21766    
     84000   1.0345167      19.78986       122.13283    
     85000   1.0415786      19.790209      121.9743     
     86000   0.9928667      19.531058      121.69695    
     87000   0.96566013     19.782519      121.60542    
     88000   0.99258113     20.310464      121.60905    
     89000   0.9913422      19.963382      121.28977    
     90000   1.0161264      20.099895      120.93367    
     91000   1.0225221      19.558856      120.7278     
     92000   1.0376193      19.655388      120.46616    
     93000   0.99978692     19.494412      120.30375    
     94000   1.0013829      19.1123        120.29559    
     95000   0.98370146     19.246754      120.1286     
     96000   1.0199569      20.031069      120.05657    
     97000   1.0472273      19.349939      119.99849    
     98000   1.0145515      19.756         119.90869    
     99000   0.99065037     20.074756      119.79666    
    100000   1.0341816      20.321865      119.6273     
Loop time of 341.794 on 1 procs for 100000 steps with 1101 atoms

Performance: 252783.872 tau/day, 292.574 timesteps/s
100.0% CPU use with 1 MPI tasks x 1 OpenMP threads

MPI task timing breakdown:
Section |  min time  |  avg time  |  max time  |%varavg| %total
---------------------------------------------------------------
Pair    | 2.1765     | 2.1765     | 2.1765     |   0.0 |  0.64
Bond    | 4.9222     | 4.9222     | 4.9222     |   0.0 |  1.44
Neigh   | 328.47     | 328.47     | 328.47     |   0.0 | 96.10
Comm    | 0.039584   | 0.039584   | 0.039584   |   0.0 |  0.01
Output  | 0.28316    | 0.28316    | 0.28316    |   0.0 |  0.08
Modify  | 5.4879     | 5.4879     | 5.4879     |   0.0 |  1.61
Other   |            | 0.4188     |            |       |  0.12

Nlocal:           1101 ave        1101 max        1101 min
Histogram: 1 0 0 0 0 0 0 0 0 0
Nghost:              0 ave           0 max           0 min
Histogram: 1 0 0 0 0 0 0 0 0 0
Neighs:           6313 ave        6313 max        6313 min
Histogram: 1 0 0 0 0 0 0 0 0 0

Total # of neighbors = 6313
Ave neighs/atom = 5.7338783
Ave special neighs/atom = 1.9981835
Neighbor list builds = 1098
Dangerous builds = 0

# Replace lj potential, now collapse
pair_style      lj/cut 3

# Cutoff simul when gyration under 5
# Variable created with equal requires v_ + 'name'
fix 3 all halt 1000 v_rog < 5

run 5000000
Generated 0 of 0 mixed pair_coeff terms from geometric mixing rule
Per MPI rank memory allocation (min/avg/max) = 1861 | 1861 | 1861 Mbytes
   Step          Temp         Enthalpy         c_1      
    100000   1.0341816      19.75481       119.6273     
    101000   1.0205416      19.519178      119.35597    
    102000   0.95370635     18.993647      119.28623    
    103000   0.99787926     19.015207      119.26482    
    104000   0.98640361     18.912227      119.07913    
    105000   0.94025086     18.773566      118.90749    
    106000   1.0232648      18.877077      118.51509    
    107000   1.0316899      19.334203      118.21854    
    108000   1.0323481      19.139963      118.01095    
    109000   1.0343518      19.472764      118.01997    
    110000   0.99395499     19.122161      117.75895    
    111000   0.97701266     19.163479      117.43922    
    112000   0.98436058     19.093829      117.1481     
    113000   1.0272911      19.166647      116.82098    
    114000   1.0098049      19.129445      116.71627    
    115000   1.0442844      19.021593      116.46733    
    116000   0.99987398     18.928499      116.23684    
    117000   0.99485674     19.476973      115.98422    
    118000   1.0124675      18.996877      115.60972    
    119000   0.97902047     18.808323      115.44821    
    120000   1.0115086      19.610225      115.17126    
    121000   1.0354393      19.099193      115.15067    
    122000   0.99244159     18.71656       115.00989    
    123000   1.055081       18.823342      114.88129    
    124000   1.0237687      18.715646      114.69714    
    125000   1.0363003      19.473092      114.42257    
    126000   0.99502216     19.281925      114.17879    
    127000   0.99019019     18.899174      113.89342    
    128000   0.99131589     19.289871      113.5884     
    129000   1.0011638      18.917222      113.48043    
    130000   0.97754143     19.142839      113.28801    
    131000   0.97489888     19.023061      113.25862    
    132000   1.0095331      19.072369      112.76094    
    133000   0.98407806     19.147832      112.77357    
    134000   0.9612701      18.995995      112.45916    
    135000   0.98350428     18.94067       112.30334    
    136000   0.9710458      19.378622      112.16758    
    137000   1.0001398      19.004858      112.16425    
    138000   0.96288674     19.458154      112.00682    
    139000   0.99352257     19.149968      111.70117    
    140000   1.0098063      18.961507      111.7044     
    141000   1.0168864      19.330762      111.54402    
    142000   1.002074       19.085736      111.36051    
    143000   1.0261194      19.102475      111.34093    
    144000   0.99918357     18.955312      110.97893    
    145000   1.0161446      18.882495      110.64349    
    146000   0.99871885     19.237392      110.33369    
    147000   1.0280164      19.426324      110.20787    
    148000   0.99053946     18.787256      110.0196     
    149000   0.98786902     18.85854       109.92792    
    150000   1.0404192      19.146079      110.04815    
    151000   0.97606965     19.227406      110.10421    
    152000   0.98114591     19.145818      109.94239    
    153000   0.98776954     19.551727      109.66345    
    154000   0.99588015     19.160641      109.2496     
    155000   0.97156563     19.227697      109.12982    
    156000   0.97534225     18.994341      108.94302    
    157000   1.0053031      19.345355      108.78147    
    158000   0.98816697     19.439454      108.42814    
    159000   0.9923352      19.137812      108.28481    
    160000   1.0126652      19.173591      108.08637    
    161000   0.9564333      19.10322       107.92103    
    162000   0.96882633     19.169737      107.74696    
    163000   0.99493621     19.504714      107.50278    
    164000   1.0141642      19.188929      107.38647    
    165000   0.98194738     18.81759       107.28378    
    166000   0.97651542     18.932426      107.06662    
    167000   1.032902       18.791423      106.93437    
    168000   1.0378964      19.089782      106.68016    
    169000   0.96962582     18.826778      106.59533    
    170000   1.0060359      18.92866       106.2483     
    171000   1.0703944      19.339798      106.06525    
    172000   1.0155278      19.309127      105.89344    
    173000   1.0257874      19.20425       105.59307    
    174000   1.0564757      19.673434      105.45651    
    175000   0.99602294     19.279346      105.20932    
    176000   0.99187983     18.783234      105.0622     
    177000   1.0082241      19.061907      105.09651    
    178000   0.99648026     19.399597      104.84113    
    179000   0.99529526     19.375865      104.62863    
    180000   1.0029092      19.666231      104.31871    
    181000   1.0485604      19.261418      103.90476    
    182000   0.94635049     18.795191      103.73327    
    183000   1.0250974      19.429729      103.59067    
    184000   1.0158298      18.789727      103.56933    
    185000   1.0069004      19.294582      103.35493    
    186000   1.0315457      18.950725      103.13057    
    187000   0.96757173     19.135687      102.61882    
    188000   1.0132435      18.998688      102.21411    
    189000   0.98191396     19.072819      101.99847    
    190000   1.0467997      19.132859      101.802      
    191000   0.96616965     18.697386      101.66931    
    192000   0.98794178     19.154335      101.9599     
    193000   1.0306408      18.954668      101.76919    
    194000   1.0057112      18.837798      101.67615    
    195000   1.0152025      18.677537      101.32933    
    196000   1.0582797      19.317724      101.07316    
    197000   0.98520006     18.477039      100.76269    
    198000   1.0009375      18.554455      100.8196     
    199000   1.0195715      18.354578      100.81798    
    200000   0.98332698     19.017184      100.77324    
    201000   0.97102131     19.093454      100.6261     
    202000   1.0241467      18.600138      100.37389    
    203000   1.043546       18.662266      100.08525    
    204000   1.0041221      18.547033      99.957452    
    205000   0.98836924     19.072558      99.738735    
    206000   1.0102146      19.30576       99.708363    
    207000   1.0249405      18.851761      99.522985    
    208000   1.0076514      18.616319      99.413017    
    209000   0.99686094     18.939467      99.35337     
    210000   0.99802382     19.123126      99.310162    
    211000   1.0235735      18.504664      99.227057    
    212000   0.98605321     18.382458      99.109318    
    213000   1.0029402      19.131553      98.998428    
    214000   1.0358022      19.040352      98.764218    
    215000   0.98546756     18.948284      98.613053    
    216000   0.97227081     18.824056      98.495429    
    217000   1.0033826      19.071271      98.336726    
    218000   1.0264722      18.672657      98.206523    
    219000   1.0223417      19.350471      97.932872    
    220000   1.0042036      18.722448      97.654311    
    221000   1.0261506      18.536199      97.641769    
    222000   0.99368922     18.53035       97.576676    
    223000   0.97334869     18.531939      97.602859    
    224000   0.97240003     19.172969      97.480341    
    225000   0.97356314     18.477992      97.391228    
    226000   0.99938786     19.278846      97.235197    
    227000   0.9743623      18.905005      96.988534    
    228000   0.97783094     18.819995      96.911771    
    229000   1.0280806      18.914293      96.742864    
    230000   0.98148098     18.801411      96.519782    
    231000   0.98031216     19.506649      96.372956    
    232000   0.97428646     18.506491      96.202875    
    233000   0.99244498     18.999212      96.125773    
    234000   1.0251978      18.732484      95.923215    
    235000   1.0157157      19.143541      95.417823    
    236000   0.98354717     18.948854      95.253484    
    237000   1.0507315      19.026182      95.042009    
    238000   0.9772663      18.879125      94.689887    
    239000   0.9643686      18.741603      94.257388    
    240000   1.0488702      19.300528      94.2499      
    241000   1.0335195      19.077915      94.085787    
    242000   1.0269056      19.383698      94.089543    
    243000   1.0260848      19.20943       93.844895    
    244000   0.97673647     18.761992      94.031649    
    245000   1.0300776      19.123137      93.734746    
    246000   0.96106116     18.074984      93.788614    
    247000   0.93897627     18.45851       93.950032    
    248000   1.0159883      18.991826      93.934603    
    249000   1.0627707      18.886796      93.710312    
    250000   0.99036525     18.985166      93.439149    
    251000   0.98683095     18.351721      93.229465    
    252000   0.99860565     18.795406      93.122939    
    253000   0.99141422     18.589029      92.977047    
    254000   1.0304097      18.943091      92.839058    
    255000   1.0101368      18.520296      92.592954    
    256000   1.0511814      19.140182      92.49526     
    257000   0.99102068     18.342557      92.136665    
    258000   0.95154822     18.729811      92.008656    
    259000   1.0067563      18.79542       91.790952    
    260000   0.9755227      18.143851      91.560157    
    261000   0.92483037     18.75024       91.425234    
    262000   1.013391       18.863622      91.283952    
    263000   0.97648696     18.417562      90.963098    
    264000   0.96012727     17.943807      90.661671    
    265000   1.0290955      18.527038      90.522937    
    266000   0.99786248     18.71589       90.591882    
    267000   1.003015       19.013571      90.258414    
    268000   0.98079441     18.60676       90.057412    
    269000   1.05102        18.957843      90.088345    
    270000   1.0163372      18.78932       89.920643    
    271000   1.024265       18.647999      89.491425    
    272000   1.0326819      18.795426      89.279991    
    273000   0.9823634      18.660733      89.06566     
    274000   0.95930205     18.319623      88.782785    
    275000   1.0158567      18.446634      88.618232    
    276000   1.0037512      18.908203      88.487452    
    277000   0.99526557     18.655598      88.376598    
    278000   0.99818602     18.989663      88.126955    
    279000   1.0415835      18.216054      87.832424    
    280000   0.9972282      18.942544      87.723099    
    281000   0.98761863     18.53778       87.714476    
    282000   0.9997301      19.128212      87.555183    
    283000   1.0146635      18.912368      87.542024    
    284000   0.97249976     19.238449      87.583312    
    285000   0.98833166     18.74608       87.704232    
    286000   1.0250586      18.506842      87.589425    
    287000   1.0265999      18.588692      87.491991    
    288000   1.0070845      18.356657      87.524675    
    289000   0.97000275     18.687848      87.444407    
    290000   1.0088717      18.792968      87.179304    
    291000   1.0025186      19.047051      87.003855    
    292000   0.97899145     18.594688      86.929932    
    293000   0.99184922     18.032414      86.695652    
    294000   0.97800624     18.904598      86.641218    
    295000   1.0088205      18.82495       86.632513    
    296000   0.97569554     18.769593      86.656054    
    297000   0.96971709     18.478058      86.374914    
    298000   1.0214605      18.877823      86.130601    
    299000   1.0019132      18.391209      86.008954    
    300000   1.0428351      18.919802      85.933956    
    301000   1.0129518      18.610782      85.838522    
    302000   0.98361314     18.546816      85.830203    
    303000   1.0086936      18.890242      85.799619    
    304000   0.9910543      18.698441      85.694619    
    305000   0.99903324     18.177202      85.425603    
    306000   1.036857       18.907588      85.285954    
    307000   0.94753562     18.635043      85.278801    
    308000   0.97644536     18.302913      85.10567     
    309000   1.0293309      19.289992      84.710798    
    310000   0.99595927     18.728542      84.360836    
    311000   1.0205774      18.782025      84.359734    
    312000   0.9903645      17.85685       84.090716    
    313000   0.99410557     18.763244      83.828707    
    314000   0.98619762     19.111584      83.689125    
    315000   0.96355536     18.512685      83.785763    
    316000   0.98168905     18.453576      83.745045    
    317000   1.0102743      18.396694      83.462811    
    318000   1.0134943      18.938322      83.523925    
    319000   0.9956782      18.646834      83.351017    
    320000   0.99755864     18.742046      83.225264    
    321000   0.99645798     18.377695      82.959145    
    322000   1.0254311      18.258799      82.768083    
    323000   1.0078975      18.982449      82.404926    
    324000   0.95394099     18.433899      82.252549    
    325000   1.0220226      18.714891      82.446841    
    326000   1.0064023      18.696097      82.328652    
    327000   0.98945156     18.819119      81.934191    
    328000   1.0222552      18.872553      81.766982    
    329000   0.98637596     19.084985      81.473036    
    330000   0.98718636     18.52995       81.06472     
    331000   1.0016932      18.19767       80.906643    
    332000   1.0300722      18.293662      81.058482    
    333000   1.0067175      18.52294       80.939005    
    334000   1.010163       18.605828      80.768278    
    335000   1.0075985      18.834839      80.573392    
    336000   1.016157       18.90925       80.555286    
    337000   1.0108215      18.921937      80.476553    
    338000   0.98914773     18.785876      80.332471    
    339000   0.99912708     18.722024      80.330074    
    340000   1.0213546      18.452516      79.984781    
    341000   0.98234181     18.500347      80.040042    
    342000   1.0068835      18.956416      79.844836    
    343000   0.98812199     18.567321      79.850053    
    344000   0.94905912     19.014284      79.901954    
    345000   0.96876173     18.463851      79.616907    
    346000   1.0391232      18.819706      79.199614    
    347000   1.0099536      18.659047      79.148578    
    348000   1.0161423      18.54019       78.956998    
    349000   0.98956602     18.384822      78.818438    
    350000   1.0527713      18.930684      78.788088    
    351000   0.97879396     18.889577      78.583075    
    352000   0.98953573     18.752959      78.572964    
    353000   0.9998453      18.570014      78.437721    
    354000   0.98420262     18.369645      78.499811    
    355000   1.00372        18.869688      78.438631    
    356000   0.97684356     18.302457      78.380356    
    357000   0.98499422     18.128984      78.119746    
    358000   0.95576459     18.327752      77.94973     
    359000   0.99437656     19.250305      77.99867     
    360000   0.97914719     18.369581      77.912317    
    361000   0.95914002     18.315368      77.704934    
    362000   1.0321671      18.528191      77.435441    
    363000   1.0174754      18.50531       77.301603    
    364000   1.0117101      18.493188      77.185805    
    365000   0.94198405     17.934429      77.108583    
    366000   1.017723       18.981957      76.804785    
    367000   0.99395644     18.537         76.70932     
    368000   0.99427009     18.049987      76.752664    
    369000   0.98844919     19.257236      76.715262    
    370000   0.96717026     17.883867      76.676843    
    371000   1.0049938      18.953021      76.40801     
    372000   1.0132995      18.754358      76.280587    
    373000   1.0031004      18.045241      76.003387    
    374000   1.0369295      18.495752      75.977336    
    375000   1.0150583      18.5344        75.887671    
    376000   0.99145514     18.035477      75.696882    
    377000   0.98603369     18.303567      75.59927     
    378000   1.0160127      18.24633       75.476365    
    379000   0.9933321      18.944107      75.396879    
    380000   0.98195648     18.337158      75.373198    
    381000   1.0122682      19.107044      75.266788    
    382000   0.99370517     17.662174      75.264258    
    383000   0.96360632     18.293636      75.150666    
    384000   0.97662953     18.631669      75.052915    
    385000   0.97497184     18.217043      74.784964    
    386000   1.0030807      18.455495      74.490005    
    387000   1.039142       18.576534      74.119675    
    388000   0.99218431     18.561695      73.630902    
    389000   0.99864461     18.33193       73.587676    
    390000   0.99897025     18.333484      73.253471    
    391000   1.0010584      18.828285      72.978771    
    392000   1.009519       18.066962      72.890148    
    393000   0.97465365     18.839351      72.634769    
    394000   1.0371038      17.94355       72.523735    
    395000   0.98666984     18.11001       72.390187    
    396000   1.0319435      18.538557      72.534241    
    397000   1.0092766      18.248133      72.638593    
    398000   0.99799582     18.348038      72.554486    
    399000   1.0561559      18.994743      72.61879     
    400000   0.97494858     17.937338      72.453755    
    401000   0.98996689     18.401154      72.505848    
    402000   1.0262145      18.349226      72.041308    
    403000   1.0055215      18.352439      71.9788      
    404000   1.0395219      18.062156      71.833197    
    405000   1.0056198      17.922264      71.822314    
    406000   0.99833609     18.398964      71.619363    
    407000   1.0130134      18.698129      71.502409    
    408000   0.97966471     18.836884      71.436881    
    409000   1.0473348      18.087098      71.505447    
    410000   0.987462       18.351298      71.319955    
    411000   0.95097856     17.752062      71.280285    
    412000   1.0350694      17.949259      71.184812    
    413000   1.0381877      18.726005      70.933359    
    414000   0.97493932     18.320772      70.568759    
    415000   1.0130115      18.196534      70.603534    
    416000   1.0203629      18.607655      70.215961    
    417000   1.0237098      18.391007      70.156196    
    418000   0.99640343     18.286986      69.823952    
    419000   1.0012834      18.472936      69.90594     
    420000   1.0044332      18.312323      69.92781     
    421000   1.0103498      18.076392      69.781377    
    422000   0.9843733      18.121714      69.876126    
    423000   0.99552615     18.131006      69.459128    
    424000   0.98969146     18.503334      69.464591    
    425000   0.99715238     17.970043      69.321381    
    426000   1.0166835      18.812878      69.1964      
    427000   0.95391279     18.402189      68.978803    
    428000   1.0326473      18.509322      68.952187    
    429000   1.0156887      18.624824      68.836782    
    430000   0.98582128     18.336244      68.479166    
    431000   1.0203397      18.479955      68.190151    
    432000   1.0300334      18.235942      68.03967     
    433000   0.97935616     18.401229      67.920225    
    434000   0.99802979     17.947027      68.084341    
    435000   0.98928076     18.126548      68.090541    
    436000   0.97646925     18.114371      67.865315    
    437000   0.98752306     18.438246      67.585521    
    438000   0.99412834     18.335021      67.347832    
    439000   0.96844184     18.084794      67.225236    
    440000   1.0032822      18.343294      67.260732    
    441000   1.0332569      18.340735      67.113766    
    442000   1.0071722      18.870099      67.071865    
    443000   0.99658821     18.399859      67.250246    
    444000   0.97588636     18.142717      67.225606    
    445000   1.0357519      18.416181      67.032856    
    446000   1.0312865      18.32778       66.778091    
    447000   1.0138268      18.269048      66.975221    
    448000   0.98468952     17.974488      67.032432    
    449000   0.99749089     17.563591      67.078849    
    450000   1.0070911      18.187528      66.707353    
    451000   1.0273323      18.074472      66.635414    
    452000   1.0127725      18.339806      66.403379    
    453000   1.0035517      18.312226      66.384029    
    454000   0.97159711     17.645852      66.349742    
    455000   0.97774399     18.171711      66.086847    
    456000   1.0401235      18.292123      66.122473    
    457000   0.99409418     18.412813      65.931766    
    458000   1.0125783      18.081856      65.893095    
    459000   1.0141958      18.399409      65.96972     
    460000   1.042229       18.175256      65.89102     
    461000   1.0215011      18.496282      65.890058    
    462000   1.0251938      18.768668      65.580486    
    463000   0.96995832     18.115247      65.521886    
    464000   0.97340549     18.136734      65.331792    
    465000   1.0073375      18.349683      65.088147    
    466000   0.99050894     17.854476      65.041362    
    467000   1.0021325      17.968807      64.818357    
    468000   1.0288649      18.477014      64.644722    
    469000   1.0440897      18.264622      64.546354    
    470000   0.93381555     17.530067      64.424298    
    471000   1.015955       18.218543      64.266276    
    472000   0.99256438     18.131052      64.231624    
    473000   1.0373993      18.804816      64.102268    
    474000   0.96864987     18.245218      63.855413    
    475000   1.0090844      18.451962      63.455335    
    476000   0.98922915     18.059611      63.534173    
    477000   0.99931581     17.659882      63.460676    
    478000   0.99133159     18.400722      63.349872    
    479000   0.99633461     17.999709      63.237463    
    480000   0.99302156     18.399923      63.139266    
    481000   1.0087476      17.971525      63.057972    
    482000   0.96861644     18.413127      63.097194    
    483000   0.99794568     18.136947      63.179897    
    484000   1.0050439      18.235503      63.153838    
    485000   1.0011944      18.027432      63.095344    
    486000   0.98409877     17.915621      63.131633    
    487000   1.0031506      18.104873      63.032761    
    488000   0.95927067     18.092785      62.916706    
    489000   1.0511592      18.037987      62.914307    
    490000   0.99476796     18.314487      62.8638      
    491000   0.95803888     18.044452      62.531018    
    492000   1.0089185      18.105658      62.319046    
    493000   0.9894532      18.109439      62.302958    
    494000   1.0337665      18.263995      62.185959    
    495000   1.0193692      18.056256      62.239554    
    496000   1.0318602      18.453053      62.306869    
    497000   0.98697889     18.415721      62.219548    
    498000   0.9747456      18.159815      62.224416    
    499000   1.0637284      18.297291      62.163847    
    500000   0.96520103     17.728926      61.896356    
    501000   1.0248496      17.879716      61.712539    
    502000   0.98240916     18.282537      61.665415    
    503000   1.0134035      18.6089        61.419585    
    504000   1.0290028      18.297011      61.102616    
    505000   1.0258786      17.784727      61.013713    
    506000   1.017306       17.668356      60.958235    
    507000   1.0719491      17.902218      60.6836      
    508000   0.98124637     18.094451      60.641263    
    509000   0.99652892     18.531209      60.348212    
    510000   1.0021832      18.402556      60.146676    
    511000   0.98792847     18.136583      59.983741    
    512000   1.0333782      18.317292      60.002257    
    513000   0.99297804     18.051792      59.677889    
    514000   1.0412469      17.930745      59.58019     
    515000   1.0488154      18.339245      59.298423    
    516000   0.99813831     17.699591      59.14197     
    517000   1.0158562      18.40456       59.071689    
    518000   0.94435141     17.647798      59.046252    
    519000   0.95133013     18.090046      58.740696    
    520000   1.0050148      18.187377      58.716101    
    521000   1.0296396      18.611043      58.582467    
    522000   1.008969       17.837347      58.59361     
    523000   0.96749445     17.615303      58.519779    
    524000   1.0042443      18.143086      58.440078    
    525000   0.97725298     17.990865      58.406034    
    526000   1.0206949      17.962384      58.338429    
    527000   0.94809191     17.540274      58.361273    
    528000   1.0479143      17.666248      58.291939    
    529000   1.0221737      18.266326      58.216712    
    530000   0.97644116     18.129464      58.103315    
    531000   0.98831576     17.959616      58.06883     
    532000   1.0365418      18.516302      57.751305    
    533000   1.0144877      17.915207      57.789413    
    534000   1.0326423      18.399708      57.511367    
    535000   1.0179302      18.283086      57.250294    
    536000   0.99243465     17.474937      56.963237    
    537000   0.99084621     17.993542      57.082711    
    538000   1.0169845      17.9905        57.051639    
    539000   0.97778087     17.783245      56.796424    
    540000   1.0084391      17.78206       56.681256    
    541000   0.98727676     18.395506      56.609747    
    542000   0.97744639     18.568453      56.612564    
    543000   1.0219158      18.474937      56.640713    
    544000   0.97369256     17.709602      56.657985    
    545000   0.9990494      18.109167      56.618123    
    546000   0.98665891     17.745931      56.65476     
    547000   1.0613711      18.240057      56.500156    
    548000   1.0182262      18.338007      56.544956    
    549000   0.98663984     18.465599      56.474638    
    550000   0.96336938     17.872023      56.677652    
    551000   1.0291191      18.07423       56.826335    
    552000   1.0048811      17.666297      56.643385    
    553000   1.0349738      18.097466      56.662083    
    554000   0.99679271     18.091508      56.308468    
    555000   0.97643882     18.099043      56.140853    
    556000   0.9868973      17.558033      56.101372    
    557000   1.0571392      17.868578      55.919475    
    558000   0.97469489     17.727391      55.860182    
    559000   0.99352992     17.673252      55.882775    
    560000   1.008367       18.28919       55.828569    
    561000   1.0152357      18.86834       55.786099    
    562000   1.0157531      18.231285      55.542602    
    563000   0.96916894     17.776975      55.51427     
    564000   1.0192886      18.007113      55.298274    
    565000   0.95490828     18.133562      55.214585    
    566000   0.99077737     17.993355      55.07899     
    567000   1.0050014      17.583931      54.710711    
    568000   0.97833625     17.953068      54.767398    
    569000   0.98130538     17.832863      54.545787    
    570000   1.0140268      17.896827      54.551538    
    571000   1.0074099      18.906864      54.409394    
    572000   1.0078098      17.706635      54.199221    
    573000   1.0050977      18.852958      54.180425    
    574000   0.99828604     18.072775      54.109242    
    575000   0.99991022     18.313051      53.963826    
    576000   1.04202        18.019531      53.833726    
    577000   0.99581595     18.054208      53.814862    
    578000   0.98599175     17.946361      53.433728    
    579000   1.0051911      18.337146      53.488317    
    580000   1.0052032      18.286151      53.471098    
    581000   1.0464531      18.268898      53.285335    
    582000   1.0142317      17.921375      53.187396    
    583000   0.9932324      17.747234      53.060293    
    584000   1.0000536      17.49706       52.944192    
    585000   0.96676637     18.14074       52.911023    
    586000   0.95053158     17.643238      52.889704    
    587000   0.99543942     17.924741      52.74956     
    588000   0.9406605      17.246944      52.55794     
    589000   0.99969878     18.00284       52.434924    
    590000   0.98018915     17.986819      51.9819      
    591000   1.0376936      17.825343      51.984478    
    592000   1.0098171      18.148171      51.729219    
    593000   0.98800591     18.026838      51.519631    
    594000   1.0111694      17.65746       51.306932    
    595000   0.98903933     17.814919      51.052606    
    596000   0.96882351     18.125561      50.754106    
    597000   0.98542669     17.965451      50.578988    
    598000   0.970871       17.922808      50.577399    
    599000   0.99062295     18.268401      50.367807    
    600000   0.98504985     17.806535      50.26684     
    601000   1.0625592      17.997974      50.209547    
    602000   0.96339063     17.416294      50.039256    
    603000   0.99263525     18.463054      50.055665    
    604000   0.95165379     18.499019      49.975141    
    605000   0.99534306     18.00213       49.994201    
    606000   0.94914105     17.797525      49.991233    
    607000   0.99485025     17.83243       49.856279    
    608000   0.99534084     17.360802      49.764945    
    609000   1.0364053      17.803467      49.807812    
    610000   1.0132401      18.433219      49.590593    
    611000   1.0495301      17.47571       49.589332    
    612000   1.0238489      18.110381      49.619491    
    613000   1.0541399      17.850282      49.411601    
    614000   1.0298007      17.765516      48.969053    
    615000   0.96083535     18.160825      48.921395    
    616000   0.97589594     17.565793      48.819012    
    617000   0.9844306      17.714605      48.774432    
    618000   0.90659        17.620333      48.610073    
    619000   0.98493979     17.790635      48.50014     
    620000   0.98294632     17.333693      48.409999    
    621000   1.0004434      17.686749      48.367595    
    622000   0.99441839     17.880198      47.919763    
    623000   1.0174244      17.812077      47.81987     
    624000   1.0164377      18.348833      47.55436     
    625000   1.0242793      17.387446      47.547859    
    626000   1.0190924      17.371453      47.386344    
    627000   1.0225204      17.527638      47.403243    
    628000   1.0146023      18.280393      47.31621     
    629000   0.99659584     17.268187      47.161463    
    630000   1.0323879      18.231902      46.726952    
    631000   0.99190667     17.830621      46.496564    
    632000   0.98792848     17.660747      46.519941    
    633000   1.0111986      17.324742      46.624814    
    634000   0.99063194     17.911934      46.37707     
    635000   0.98235417     18.092003      46.336617    
    636000   0.97410398     17.697555      46.212148    
    637000   0.99561538     18.025674      46.149047    
    638000   1.016128       17.352631      46.223147    
    639000   1.0078554      17.331592      45.968958    
    640000   0.99791026     17.091957      45.948333    
    641000   0.99265076     17.827244      45.756159    
    642000   0.99010106     17.652478      45.662883    
    643000   0.98146224     17.698631      45.340629    
    644000   0.99732324     17.717347      45.285719    
    645000   1.0488139      18.028031      45.158041    
    646000   0.98657825     17.679478      44.95133     
    647000   1.0066636      18.035077      44.844654    
    648000   1.035802       17.714284      44.906063    
    649000   0.95832002     17.740207      44.714301    
    650000   0.96264137     17.089384      44.554136    
    651000   1.0064765      17.660763      44.665466    
    652000   1.0180109      17.662791      44.574349    
    653000   1.0140595      17.970877      44.387384    
    654000   0.9881896      17.90077       44.171466    
    655000   1.0171827      17.519305      44.516038    
    656000   1.0194229      17.945077      44.373093    
    657000   1.0106067      18.414607      44.323241    
    658000   1.0213288      18.276308      44.084817    
    659000   0.9733673      17.399065      44.250017    
    660000   0.99966597     18.264706      44.241551    
    661000   0.96945361     18.170474      44.077152    
    662000   1.0432688      17.611717      43.659242    
    663000   0.987938       17.9979        43.46552     
    664000   1.0067442      17.681807      43.478871    
    665000   0.98726085     17.947191      43.302667    
    666000   1.0140732      17.27038       43.177499    
    667000   0.94538954     17.291971      43.071892    
    668000   0.99111169     17.633412      43.095246    
    669000   0.98763677     18.652638      43.274512    
    670000   1.0193848      17.411307      43.219897    
    671000   1.0095201      18.023905      43.010572    
    672000   1.042934       17.480828      42.765689    
    673000   1.009011       18.05604       42.592104    
    674000   1.0043282      17.771279      42.456847    
    675000   1.0200623      18.256618      42.342763    
    676000   0.99636018     17.685966      42.324974    
    677000   1.0082893      18.159686      42.281358    
    678000   0.99004169     17.712962      42.05711     
    679000   0.93895119     17.278897      41.979733    
    680000   1.0187919      17.689874      41.951358    
    681000   1.0043064      17.467317      41.687158    
    682000   1.0052513      18.185426      41.504709    
    683000   0.97526345     17.528055      41.537368    
    684000   1.0213435      17.743434      41.625839    
    685000   0.99847237     17.658179      41.371405    
    686000   0.99268964     17.709382      41.37031     
    687000   0.9817325      18.070969      41.391631    
    688000   1.0280982      17.632581      41.426623    
    689000   0.98911948     17.630446      41.534503    
    690000   0.98819182     17.656033      41.468619    
    691000   1.0142222      17.454864      41.540154    
    692000   0.98751358     17.652279      41.646464    
    693000   1.0349654      18.122358      41.500347    
    694000   0.97022722     17.163471      41.408584    
    695000   1.0036365      17.713589      41.030136    
    696000   1.0390447      17.944792      41.095302    
    697000   1.0407199      18.093107      40.962376    
    698000   1.0332046      17.795135      40.883798    
    699000   1.0076616      17.434513      40.649782    
    700000   1.0097607      17.920906      40.433461    
    701000   0.98472243     18.151926      40.529745    
    702000   0.97035994     17.54038       40.403994    
    703000   0.98031308     17.363617      40.149307    
    704000   0.95475989     18.403801      40.052757    
    705000   1.0244071      18.009168      39.77685     
    706000   0.99212125     17.313054      39.829146    
    707000   1.0190615      17.91356       39.665313    
    708000   0.99404836     17.365905      39.449025    
    709000   1.0246363      17.853998      39.395919    
    710000   0.98686294     18.293923      39.387079    
    711000   0.99220799     17.812489      39.382039    
    712000   0.95145114     17.135372      39.259846    
    713000   1.0160315      18.079531      39.033379    
    714000   1.0250724      17.818186      38.796807    
    715000   1.025954       17.780734      38.437372    
    716000   1.0229741      17.852348      38.455379    
    717000   0.9956292      17.814322      38.218156    
    718000   1.0129344      17.566946      38.198188    
    719000   1.0085805      17.973655      38.24393     
    720000   1.0059478      17.35791       38.112941    
    721000   0.98801709     17.404582      38.118101    
    722000   1.0368936      17.263775      38.062304    
    723000   0.98389074     17.756342      37.913841    
    724000   1.0042641      17.88666       37.838554    
    725000   0.97191366     17.197076      37.631837    
    726000   1.0023281      17.96518       37.737753    
    727000   0.99053188     18.098491      37.879951    
    728000   0.98512846     17.614536      38.009058    
    729000   0.98792182     17.639669      37.930226    
    730000   0.99776523     17.453194      37.804512    
    731000   0.96772554     17.318604      37.616097    
    732000   0.9672         17.666741      37.446896    
    733000   1.0419541      18.302094      37.172923    
    734000   1.0112816      17.618507      37.174255    
    735000   0.99473746     17.546163      37.039035    
    736000   0.9963294      17.565826      36.969729    
    737000   1.0477675      17.678121      36.96578     
    738000   1.0111349      17.507387      36.932938    
    739000   1.0027616      18.251388      36.606176    
    740000   1.0065872      17.788511      36.581002    
    741000   1.0068226      17.670907      36.383077    
    742000   1.0152798      17.714763      36.254302    
    743000   0.99653897     17.744417      36.041643    
    744000   1.0360586      17.027713      35.771282    
    745000   0.97222025     17.667237      35.878849    
    746000   1.0263168      17.21107       35.826433    
    747000   1.0331034      17.722171      35.775948    
    748000   1.0145682      17.778824      35.639518    
    749000   0.99736881     17.66245       35.518111    
    750000   0.99835777     17.733253      35.055455    
    751000   1.0184925      17.794128      35.120152    
    752000   1.0411076      17.30607       35.059052    
    753000   0.95450338     17.250436      34.86477     
    754000   1.012611       17.647488      34.681821    
    755000   1.0144023      17.818983      34.685604    
    756000   0.99903527     17.631109      34.448898    
    757000   1.0235534      18.237588      34.211946    
    758000   1.0528768      17.815124      34.114421    
    759000   0.98684108     17.31435       33.951316    
    760000   1.0055785      17.351589      33.764911    
    761000   0.99143426     18.005937      33.736389    
    762000   1.032406       17.57661       33.726655    
    763000   1.0496312      17.231218      33.671575    
    764000   0.97784164     17.800592      33.545801    
    765000   1.0245696      17.805087      33.445754    
    766000   1.0168509      17.907602      33.39467     
    767000   1.0015163      17.480865      33.28498     
    768000   0.97540081     17.214958      33.158665    
    769000   1.0337878      17.569722      32.970722    
    770000   1.0126301      17.650992      32.76561     
    771000   0.9904969      17.797023      32.466834    
    772000   0.96602848     17.404329      32.561696    
    773000   0.99505124     17.618495      32.363237    
    774000   0.99018897     17.697259      31.947059    
    775000   0.99003764     17.935761      31.651708    
    776000   0.99218569     17.825772      31.372261    
    777000   0.98769924     17.195486      31.367307    
    778000   1.0220745      17.533665      31.088341    
    779000   1.016557       17.068488      30.822673    
    780000   1.0285623      17.036215      30.653594    
    781000   1.0213987      17.557017      30.606858    
    782000   0.97704256     17.540744      30.327381    
    783000   1.0112344      16.879562      30.303882    
    784000   0.99219367     16.850194      30.295142    
    785000   1.05263        17.675067      30.205071    
    786000   0.97287991     17.639823      30.042915    
    787000   1.011356       17.507821      30.010174    
    788000   1.0108063      18.190406      30.03028     
    789000   0.99621852     17.337116      30.075604    
    790000   1.0157482      17.6744        29.92721     
    791000   0.97669984     17.903794      29.934186    
    792000   0.95539618     17.40664       29.806494    
    793000   1.0610934      17.738262      29.630379    
    794000   1.0157528      17.873551      29.532655    
    795000   0.99744684     17.683985      29.440375    
    796000   1.0045785      16.990781      29.501932    
    797000   1.0643014      17.840339      29.327637    
    798000   1.0398414      17.110272      29.336253    
    799000   0.97520138     17.556432      29.327879    
    800000   0.95130633     17.340043      29.174665    
    801000   0.99328239     17.391551      28.956395    
    802000   1.0015465      17.845766      28.722451    
    803000   0.9802519      17.246408      28.614979    
    804000   0.99277586     17.784792      28.454769    
    805000   0.99480963     17.992754      28.446198    
    806000   0.99924275     16.980301      28.333519    
    807000   1.0335476      17.001185      28.139249    
    808000   0.97450269     17.790322      28.024788    
    809000   1.0314077      18.194001      28.045802    
    810000   0.99924308     17.321377      27.781503    
    811000   1.0473552      17.408042      27.783885    
    812000   1.0093872      17.659164      27.551754    
    813000   0.97648495     18.02855       27.531172    
    814000   1.053711       17.541181      27.299004    
    815000   0.99181393     17.060609      27.307278    
    816000   0.9639665      17.638216      27.174625    
    817000   0.98586002     17.740652      27.016251    
    818000   1.0066524      17.480503      26.997285    
    819000   1.0094612      17.46831       26.952455    
    820000   0.99722586     17.476515      26.785352    
    821000   1.0468659      17.651158      26.570416    
    822000   1.0363697      17.640658      26.53999     
    823000   1.0088778      17.595515      26.427264    
    824000   0.9914122      17.932014      26.293087    
    825000   1.0287887      17.433138      25.973581    
    826000   1.0058766      17.897318      25.9177      
    827000   1.0107093      17.297232      25.874819    
    828000   0.95374396     17.510223      25.891633    
    829000   1.0227477      17.999708      25.84507     
    830000   0.9814384      17.861507      25.83569     
    831000   1.0025885      17.536939      25.722611    
    832000   0.99483502     17.10008       25.663603    
    833000   0.99566839     17.046341      25.457355    
    834000   0.98863688     17.529518      25.223689    
    835000   0.96120509     17.723993      25.268543    
    836000   1.0169665      17.340852      25.147546    
    837000   1.0190377      17.520052      25.047917    
    838000   0.98074478     17.292056      24.925083    
    839000   1.0021393      17.114146      24.73675     
    840000   1.0195179      17.654323      24.592032    
    841000   0.98138641     17.463331      24.399426    
    842000   1.0280651      17.28247       24.07534     
    843000   1.0377908      17.098634      23.837392    
    844000   0.98717805     17.906555      23.716703    
    845000   0.93706414     17.454971      23.577142    
    846000   1.0256004      17.294131      23.719384    
    847000   0.99041893     17.943337      23.603475    
    848000   0.99198583     17.438668      23.533229    
    849000   1.0212271      17.860197      23.441184    
    850000   1.0043648      17.274658      23.113807    
    851000   1.01269        17.865868      23.012865    
    852000   0.98946296     17.612287      22.724473    
    853000   0.97653792     17.189312      22.821921    
    854000   1.0055396      17.610736      22.590802    
    855000   0.98671068     17.613478      22.585445    
    856000   0.98107857     17.67336       22.440814    
    857000   0.99794316     17.657021      22.28827     
    858000   1.000123       17.130125      22.482999    
    859000   0.99235328     16.99177       22.53033     
    860000   1.0204386      17.396361      22.626279    
    861000   1.0527268      17.766404      22.544699    
    862000   0.9872793      17.289236      22.590259    
    863000   0.95508569     17.799608      22.294479    
    864000   1.0269077      17.195919      22.34466     
    865000   0.99137304     17.294534      22.304837    
    866000   0.98996989     16.532669      22.168338    
    867000   1.0259289      17.567283      22.021127    
    868000   1.034799       17.431387      21.724877    
    869000   1.0066943      17.390736      21.587723    
    870000   0.95460487     17.316014      21.432658    
    871000   1.0376948      17.585158      21.53602     
    872000   0.97444994     17.433448      21.242854    
    873000   1.0119178      18.153549      21.254976    
    874000   1.0107777      17.344903      21.097534    
    875000   0.98507258     17.282009      20.931797    
    876000   1.0238263      17.34875       20.93132     
    877000   1.0285387      17.452433      20.948761    
    878000   1.0011193      16.917545      21.058565    
    879000   1.0221543      17.774038      20.859019    
    880000   1.0179622      17.425577      20.804869    
    881000   1.0295846      18.051704      20.733573    
    882000   1.0087634      17.049708      20.846526    
    883000   1.0130782      17.715818      20.7629      
    884000   1.0114539      17.427304      20.675981    
    885000   1.0337437      17.405497      20.643096    
    886000   1.0071905      17.490666      20.338187    
    887000   0.99756252     17.725213      20.253313    
    888000   1.0016096      17.588707      20.254331    
    889000   1.0025436      16.954355      19.966925    
    890000   0.98922917     17.213699      20.044247    
    891000   0.95047218     17.00557       20.12474     
    892000   0.98253694     16.983512      20.000268    
    893000   0.98375006     17.222755      19.631205    
    894000   0.97920184     17.206444      19.655464    
    895000   1.0123514      17.146372      19.480874    
    896000   0.98764595     17.468868      19.467105    
    897000   1.005392       16.976644      19.459858    
    898000   1.0151708      17.583602      19.171057    
    899000   1.0032132      17.775806      19.023195    
    900000   1.0173707      16.65975       18.821404    
    901000   1.0119753      17.474999      18.78968     
    902000   0.95474123     17.300369      18.712616    
    903000   1.0533493      17.103777      18.781223    
    904000   0.98557115     17.791626      18.56257     
    905000   1.0180007      17.304991      18.238342    
    906000   1.0070276      17.008181      18.156357    
    907000   1.0207791      17.319913      18.257403    
    908000   1.0145566      18.086454      18.143993    
    909000   1.0139469      17.366307      17.955556    
    910000   0.97116967     17.594495      17.929132    
    911000   0.98146525     17.89456       17.708955    
    912000   1.0158485      17.445853      17.425308    
    913000   1.0469147      17.335253      17.305688    
    914000   1.0203682      17.804786      17.226973    
    915000   0.95652167     17.706937      17.41379     
    916000   0.98056705     16.878239      17.333732    
    917000   0.99854316     17.607796      17.236406    
    918000   1.0089491      17.137622      17.142991    
    919000   0.98580983     17.955034      17.122531    
    920000   1.0163219      17.365806      16.979871    
    921000   1.0322359      18.072319      16.867987    
    922000   1.0067482      17.472236      16.718538    
    923000   1.054641       17.736434      16.452469    
    924000   1.0024964      17.161857      16.244368    
    925000   0.95250478     17.571352      16.238334    
    926000   1.0191142      17.996617      16.251074    
    927000   1.0014825      16.985029      16.285199    
    928000   1.0012856      17.516287      16.228124    
    929000   0.98436876     17.397512      16.237098    
    930000   0.97916132     16.981548      16.026548    
    931000   0.98656079     17.513727      15.851847    
    932000   1.0058328      17.520917      15.750494    
    933000   1.0633459      17.729176      15.81234     
    934000   1.061038       16.52971       15.564961    
    935000   1.040518       17.243329      15.29589     
    936000   0.99046415     17.301902      15.137639    
    937000   0.99535501     16.913494      15.110949    
    938000   0.9958993      16.995027      15.195989    
    939000   1.0013573      17.003093      15.112424    
    940000   0.99119144     17.26834       15.119486    
    941000   1.0475572      16.750923      15.214845    
    942000   1.0293903      17.329246      15.159391    
    943000   1.0000329      17.161907      15.071051    
    944000   0.96286231     16.800713      14.835331    
    945000   0.99909391     17.126644      14.608789    
    946000   0.99468832     16.586037      14.466271    
    947000   1.0128879      17.684502      14.361656    
    948000   0.95993948     17.18474       14.153239    
    949000   0.96421075     17.690492      13.942849    
    950000   1.0005745      17.233988      13.796507    
    951000   1.0007595      17.569835      13.579105    
    952000   1.0347302      17.516825      13.492126    
    953000   0.9762585      17.432414      13.193233    
    954000   0.99424917     16.910059      12.858655    
    955000   0.99659409     17.814046      12.67477     
    956000   1.0267411      17.255749      12.685133    
    957000   1.0009572      17.061444      12.605598    
    958000   1.0081286      16.772328      12.641623    
    959000   0.97644825     17.640801      12.476931    
    960000   1.0055651      17.058285      12.283059    
    961000   1.0230519      17.047449      12.09856     
    962000   1.0383855      17.986586      11.896256    
    963000   0.97139355     17.111523      11.812375    
    964000   1.0154844      17.13295       11.698419    
    965000   1.052429       17.058052      11.695604    
    966000   1.0010645      16.506179      11.726726    
    967000   0.95382257     16.611451      11.591592    
    968000   1.0045926      17.307839      11.592352    
    969000   1.033229       16.870457      11.555795    
    970000   0.99662834     16.805441      11.531303    
    971000   0.97792582     16.766874      11.499643    
    972000   1.0252543      17.07814       11.237933    
    973000   1.0020238      17.271574      11.114595    
    974000   0.99227196     17.256707      11.0502      
    975000   0.94949324     16.630751      11.033935    
    976000   1.0025038      17.266695      11.008257    
    977000   0.9997215      17.027423      11.035403    
    978000   1.0017716      17.446088      11.065185    
    979000   0.99254863     16.520235      10.895653    
    980000   0.98821432     17.088644      10.758856    
    981000   1.0061898      17.026038      10.804597    
    982000   1.0887511      17.082807      10.777813    
    983000   0.98738367     16.909238      10.751608    
    984000   0.96226732     17.154608      10.796509    
    985000   1.0032191      17.154382      10.765876    
    986000   0.98952559     16.526434      10.688877    
    987000   1.0220024      16.257034      10.654166    
    988000   0.94776352     16.41341       10.573071    
    989000   0.9955082      16.93337       10.599765    
    990000   0.96656514     16.717528      10.606199    
    991000   1.0278319      16.937654      10.588605    
    992000   1.0023779      17.271255      10.858627    
    993000   0.97910011     16.936257      10.695664    
    994000   0.99593314     17.270289      10.583859    
    995000   1.0077008      17.771878      10.473846    
    996000   1.0211643      16.981393      10.353075    
    997000   0.97749622     16.564768      10.284843    
    998000   1.0119346      16.353866      10.199792    
    999000   1.0000261      16.81928       10.161       
   1000000   0.99756707     16.988317      10.017298    
   1001000   1.0346262      17.477878      9.9812033    
   1002000   1.0067088      16.794729      10.096381    
   1003000   0.97909921     17.016249      10.025433    
   1004000   0.99985593     17.404911      9.9767847    
   1005000   1.0141875      16.973374      9.8869137    
   1006000   0.99703755     17.426814      9.8467488    
   1007000   0.99452719     16.773144      9.6959476    
   1008000   0.99629155     16.935625      9.5549136    
   1009000   0.98321691     17.339272      9.5814768    
   1010000   1.016465       17.051575      9.6047222    
   1011000   0.98958651     16.958609      9.6499453    
   1012000   1.0362429      17.22261       9.6648841    
   1013000   0.99997734     17.376736      9.562034     
   1014000   0.96013733     16.097609      9.4122082    
   1015000   0.99885013     17.02866       9.2694685    
   1016000   0.99948724     17.113032      9.3435023    
   1017000   1.0018259      17.232199      9.3602819    
   1018000   0.95559364     16.056708      9.3597332    
   1019000   0.9875926      17.092919      9.3039639    
   1020000   0.9808612      16.860881      9.3158878    
   1021000   1.0454793      17.358151      9.3725223    
   1022000   1.0116416      17.125364      9.329036     
   1023000   0.97786876     17.364605      9.2486478    
   1024000   1.0324468      16.415455      9.2649275    
   1025000   0.95388506     17.251362      9.2468879    
   1026000   0.99916471     16.603489      9.2812694    
   1027000   0.9494746      16.988169      9.2125168    
   1028000   0.99875854     17.550603      9.15187      
   1029000   1.0011206      17.472576      8.8335197    
   1030000   1.0097327      17.118586      8.6244884    
   1031000   1.0241101      17.152054      8.5841128    
   1032000   1.0126928      17.10335       8.6303315    
   1033000   0.99999282     16.996637      8.5724208    
   1034000   0.95308691     16.761721      8.6464435    
   1035000   0.98627561     17.278022      8.568502     
   1036000   1.028897       16.892127      8.5521093    
   1037000   1.0272996      16.906376      8.5760386    
   1038000   1.002936       16.739404      8.6471096    
   1039000   1.0073373      17.150957      8.519935     
   1040000   0.98288985     17.234685      8.1419554    
   1041000   1.0000828      16.484892      8.177276     
   1042000   0.98602983     16.69688       8.2539044    
   1043000   0.98820433     16.874941      8.1837145    
   1044000   1.0255467      17.138379      8.0792588    
   1045000   1.0167101      17.409198      7.9855474    
   1046000   1.0195341      17.20319       7.9224137    
   1047000   1.0365492      17.173254      7.951908     
   1048000   1.039552       16.958267      7.8822564    
   1049000   1.0082457      16.979764      7.8345611    
   1050000   1.0030859      16.69873       7.8740651    
   1051000   0.99802873     17.140061      7.8313468    
   1052000   1.0326968      17.097362      7.6808399    
   1053000   1.0064171      17.029202      7.5820979    
   1054000   1.0277859      17.067086      7.4676929    
   1055000   0.99551067     17.020709      7.392379     
   1056000   0.95524768     17.028492      7.2279651    
   1057000   1.0019082      17.456581      7.1573821    
   1058000   0.98625763     17.057986      7.2891485    
   1059000   1.0090363      16.945351      7.1805518    
   1060000   0.99289599     16.631705      7.0823847    
   1061000   1.0129067      16.959085      7.1056077    
   1062000   0.9714615      17.231105      6.7778924    
   1063000   0.99247162     16.872576      6.6026427    
   1064000   0.98075224     16.859586      6.3983231    
   1065000   1.0217507      16.96856       6.1014129    
   1066000   1.0020067      17.280017      6.0003412    
   1067000   0.99831216     16.422537      5.8218629    
   1068000   1.0303422      16.486075      5.7454606    
   1069000   0.97822951     17.428116      5.5833115    
   1070000   0.98765343     16.560363      5.4832353    
   1071000   0.98101427     16.583442      5.4468526    
   1072000   0.99779299     16.544883      5.4436617    
   1073000   0.97560153     16.730334      5.3676861    
   1074000   0.96378787     16.459266      5.3630945    
   1075000   1.0139584      16.940418      5.3289639    
   1076000   0.99430046     16.831856      5.3046787    
   1077000   1.0056885      16.621669      5.3441715    
   1078000   0.95861659     16.169986      5.2683207    
   1079000   1.0396458      17.03405       5.2905776    
   1080000   1.0107231      16.860339      5.2625178    
   1081000   1.0353328      16.658989      5.2389717    
   1082000   0.98488893     16.358934      5.3039369    
   1083000   0.96401181     16.818144      5.246062     
   1084000   1.0082425      16.371936      5.2721173    
   1085000   1.0166913      16.895126      5.2586027    
   1086000   1.0091883      16.391234      5.2903063    
   1087000   0.97310182     17.070435      5.2401955    
   1088000   1.0128854      17.03934       5.2388777    
   1089000   0.9874698      16.096499      5.2537494    
   1090000   1.0013771      16.629711      5.2675298    
   1091000   1.0081543      16.164072      5.2669907    
   1092000   1.0193772      16.98309       5.2976608    
   1093000   0.95574608     16.508042      5.2672687    
   1094000   1.0355927      16.666044      5.2382706    
   1095000   0.99081483     17.193141      5.2232832    
   1096000   1.0344186      16.943828      5.2666999    
   1097000   0.98683697     16.433288      5.2739031    
   1098000   1.0335537      16.953047      5.2765398    
   1099000   1.0338452      16.336605      5.2641338    
   1100000   0.98644939     17.121747      5.2844718    
   1101000   0.97283938     16.667623      5.2608343    
   1102000   0.97051903     17.10005       5.246188     
   1103000   0.95178822     16.911387      5.2596411    
   1104000   0.96556217     16.821048      5.2200618    
   1105000   1.028621       16.687393      5.2757683    
   1106000   1.0043412      16.521809      5.2882261    
   1107000   1.0173691      16.113568      5.3032137    
   1108000   1.0020978      16.373235      5.2757445    
   1109000   0.98775425     16.595249      5.2722602    
   1110000   1.0009959      16.254921      5.3008706    
   1111000   0.99761249     16.681213      5.268388     
   1112000   1.0123443      16.672973      5.2665068    
   1113000   0.99482935     16.99879       5.264363     
   1114000   1.046748       17.305684      5.2540938    
   1115000   1.0171707      16.821024      5.2691321    
   1116000   1.0284479      16.784771      5.2657827    
   1117000   0.998174       16.620435      5.2787087    
   1118000   1.0387413      17.435643      5.279512     
   1119000   0.96298322     16.201453      5.2546545    
   1120000   1.0022369      16.924535      5.2411508    
   1121000   1.0061094      16.218629      5.2544307    
   1122000   1.0348613      16.996438      5.2563893    
   1123000   0.97331655     16.502587      5.2465575    
   1124000   0.96405369     16.604636      5.2248122    
   1125000   1.0299634      17.453954      5.2364443    
   1126000   1.0277108      16.916814      5.2764949    
   1127000   1.0066362      16.249718      5.2197839    
   1128000   0.94262028     16.488556      5.2841575    
   1129000   1.0066243      17.000443      5.2648708    
   1130000   0.98854552     16.867438      5.2551302    
   1131000   0.9850952      16.091498      5.214259     
   1132000   1.0029818      16.677245      5.2473371    
   1133000   0.99246386     16.695341      5.2475957    
   1134000   0.99081785     16.3707        5.2825801    
   1135000   0.99257173     16.768142      5.2643699    
   1136000   0.97805482     17.044875      5.2696815    
   1137000   1.0171063      16.664977      5.2814461    
   1138000   0.94579067     16.513279      5.2187516    
   1139000   0.98556814     16.64054       5.2642351    
   1140000   0.98643481     16.784148      5.2504629    
   1141000   0.97850403     16.884249      5.2537565    
   1142000   1.0316525      16.996921      5.2782209    
   1143000   0.99730674     16.463088      5.246739     
   1144000   0.96772392     16.877545      5.2386612    
   1145000   0.97269723     16.823871      5.268512     
   1146000   0.99510314     17.210269      5.2659632    
   1147000   1.008847       16.745454      5.2582021    
   1148000   0.99391841     16.869231      5.2545512    
   1149000   1.0256214      17.183597      5.2742743    
   1150000   0.97044623     17.068962      5.2696285    
   1151000   1.0445227      17.405788      5.2865585    
   1152000   0.98279268     16.811551      5.2428745    
   1153000   1.0065221      16.68783       5.2510089    
   1154000   1.0600566      17.022438      5.2911285    
   1155000   1.0205893      16.851324      5.2930389    
   1156000   1.0735876      16.942899      5.2863159    
   1157000   0.98267698     16.990395      5.254631     
   1158000   0.99804772     17.165581      5.2524901    
   1159000   1.0273946      16.957011      5.2585904    
   1160000   1.0219551      17.046354      5.2344388    
   1161000   0.95669191     16.572295      5.249292     
   1162000   0.99341635     16.817258      5.2605263    
   1163000   0.99016726     16.580625      5.2892263    
   1164000   0.98607234     16.785164      5.2514347    
   1165000   1.0027477      16.762068      5.2730935    
   1166000   0.99630742     16.750579      5.262372     
   1167000   1.0095841      16.657718      5.2665811    
   1168000   1.0052229      16.906243      5.2920895    
   1169000   0.9974453      17.613805      5.2310855    
   1170000   0.9811596      16.906017      5.2275914    
   1171000   0.98718354     16.875847      5.2584191    
   1172000   1.0357272      16.505293      5.233567     
   1173000   1.0357576      17.342475      5.2439707    
   1174000   0.99769161     16.722912      5.2534303    
   1175000   0.98165677     16.154958      5.2568997    
   1176000   0.97784893     16.69254       5.2472103    
   1177000   0.99740976     16.860169      5.2715642    
   1178000   1.014081       16.402299      5.2672494    
   1179000   1.0016571      17.013915      5.244366     
   1180000   0.92667596     16.553166      5.2823117    
   1181000   1.0277326      16.511587      5.2978135    
   1182000   1.0013093      16.937404      5.2634138    
   1183000   1.0413842      17.006768      5.2510566    
   1184000   0.99189037     16.720889      5.2600184    
   1185000   1.0137372      17.273787      5.293984     
   1186000   1.0065936      16.762526      5.2825769    
   1187000   0.99566566     16.447479      5.2478361    
   1188000   1.01328        16.819732      5.2573955    
   1189000   1.0078837      16.791267      5.2615578    
   1190000   1.0472005      16.999114      5.3109896    
   1191000   0.99163161     16.512853      5.2747341    
   1192000   0.97922759     17.115875      5.2456173    
   1193000   1.038588       17.257416      5.2354552    
   1194000   0.95446001     16.997224      5.2054244    
   1195000   1.0150032      16.637201      5.2533428    
   1196000   1.0124527      16.841056      5.2652166    
   1197000   1.0087162      16.582219      5.2676167    
   1198000   1.0058608      16.693488      5.2711465    
   1199000   0.97041636     16.65409       5.2409511    
   1200000   0.98680826     16.872708      5.2125785    
   1201000   0.95596892     17.366807      5.2157357    
   1202000   1.0079709      16.263913      5.2525937    
   1203000   0.979469       16.907947      5.2563572    
   1204000   0.96527963     16.850161      5.2531119    
   1205000   0.98615194     16.923721      5.2986772    
   1206000   0.95219831     16.618922      5.2241314    
   1207000   1.0051114      16.474195      5.2364975    
   1208000   0.97729221     16.854336      5.2129126    
   1209000   0.99090274     16.298837      5.2610904    
   1210000   0.98383366     16.620229      5.2340565    
   1211000   1.0054699      16.487379      5.2343755    
   1212000   1.0246535      16.839749      5.216759     
   1213000   1.037507       16.717904      5.2230532    
   1214000   1.0112708      16.739984      5.231416     
   1215000   1.0043084      16.917103      5.2504036    
   1216000   1.012861       17.54132       5.2517909    
   1217000   0.98750135     16.919726      5.2420294    
   1218000   0.97690157     16.821218      5.2449231    
   1219000   0.98835187     16.531611      5.2565716    
   1220000   1.0102513      16.820754      5.2633973    
   1221000   1.0403085      16.736373      5.2636072    
   1222000   1.0411418      16.851141      5.2501839    
   1223000   0.99541324     16.439835      5.2430445    
   1224000   1.0295983      16.977838      5.2226414    
   1225000   0.98669996     16.674003      5.2385268    
   1226000   1.0094397      16.999167      5.2371436    
   1227000   0.99640607     16.394998      5.2453691    
   1228000   1.0179783      16.207512      5.241827     
   1229000   0.99834038     17.251153      5.1938409    
   1230000   1.0028331      16.996082      5.2067262    
   1231000   1.0188297      16.508065      5.236867     
   1232000   0.99387634     17.013278      5.2285765    
   1233000   0.97176437     16.963178      5.2527434    
   1234000   1.0014589      16.969179      5.2625904    
   1235000   0.98266134     16.78651       5.2622472    
   1236000   1.0025574      16.620965      5.242774     
   1237000   0.98999419     16.925797      5.2520537    
   1238000   0.95632816     16.338522      5.2653475    
   1239000   1.017269       15.974973      5.2629514    
   1240000   0.97625811     16.591613      5.2693948    
   1241000   1.0014661      16.979104      5.2773012    
   1242000   1.0154419      16.732633      5.2787538    
   1243000   0.98806589     16.21599       5.3128918    
   1244000   1.0090373      17.035619      5.2900793    
   1245000   1.0058975      16.696259      5.2457227    
   1246000   1.0053297      16.8919        5.2700875    
   1247000   0.95555064     16.498823      5.3169077    
   1248000   0.97396759     16.977271      5.2646284    
   1249000   1.0150712      16.556556      5.2610608    
   1250000   0.96588958     16.961946      5.2443733    
   1251000   1.0316352      16.566301      5.2898992    
   1252000   1.0338464      17.14928       5.2784972    
   1253000   1.026162       16.670661      5.2731506    
   1254000   0.99594995     17.000635      5.2475904    
   1255000   0.97882474     16.689898      5.2701393    
   1256000   1.0728842      17.035493      5.3008294    
   1257000   1.0172543      16.874652      5.2951156    
   1258000   0.98215564     16.632173      5.2428032    
   1259000   1.005803       17.008357      5.2178192    
   1260000   0.99305852     16.586519      5.2271061    
   1261000   0.99208977     16.642405      5.2704683    
   1262000   1.009088       16.539257      5.2349525    
   1263000   0.97301736     17.077645      5.2354331    
   1264000   0.95164365     17.058436      5.2406504    
   1265000   0.97602368     16.906718      5.2743104    
   1266000   0.9845614      16.993656      5.3076674    
[...]
   4790000   0.98702017     16.727155      5.2361901    
   4791000   0.99839973     16.991646      5.2140198    
   4792000   0.95349227     16.280688      5.2576504    
   4793000   1.0134406      16.793283      5.2647365    
   4794000   1.0078455      16.571324      5.248575     
   4795000   0.9982875      16.648517      5.2268961    
   4796000   1.0079359      16.715415      5.2260738    
   4797000   0.97947124     16.337103      5.2087551    
   4798000   0.99323946     16.479489      5.1880184    
   4799000   0.96899486     16.703071      5.2266326    
   4800000   0.9938861      16.134307      5.2342137    
   4801000   0.99386556     16.57782       5.2154236    
   4802000   0.93995579     16.702595      5.244667     
   4803000   1.0135212      17.163851      5.2205638    
   4804000   1.0407682      16.500898      5.2584164    
   4805000   1.0091584      16.542761      5.2025693    
   4806000   0.95661612     16.883738      5.2079625    
   4807000   0.99247613     16.471875      5.2284044    
   4808000   1.0331065      16.969356      5.2574697    
   4809000   1.0048647      17.016861      5.1901093    
   4810000   0.99920536     16.408428      5.2394332    
   4811000   1.0150592      16.596206      5.2228663    
   4812000   0.99783762     16.733739      5.2040278    
   4813000   1.0186483      16.554871      5.2140358    
   4814000   0.99596614     16.776493      5.2024513    
   4815000   1.0206226      16.639378      5.2186723    
   4816000   0.95153034     16.654387      5.2135624    
   4817000   1.0108827      16.798465      5.2345378    
   4818000   0.99367858     17.122575      5.2368223    
   4819000   0.98290892     16.076995      5.2318648    
   4820000   1.013205       16.845627      5.2382092    
   4821000   0.97678604     16.821479      5.2097658    
   4822000   1.0059052      16.337763      5.212505     
   4823000   0.95041215     17.230899      5.23531      
   4824000   1.0364683      16.692473      5.265539     
   4825000   0.9877205      17.21408       5.2364494    
   4826000   1.0396399      16.857431      5.2388292    
   4827000   0.9715536      16.880216      5.216566     
   4828000   1.0312702      16.546705      5.2513377    
   4829000   0.96902156     16.522502      5.2948025    
   4830000   0.9773699      16.69836       5.2725653    
   4831000   1.0178329      16.308029      5.2739348    
   4832000   1.0055304      16.377153      5.2638608    
   4833000   1.0282567      17.20448       5.2683185    
   4834000   0.94729846     16.805249      5.247726     
   4835000   1.0047674      16.775262      5.2488276    
   4836000   0.99427097     16.530649      5.251393     
   4837000   0.99629201     17.019806      5.2578274    
   4838000   0.99591127     16.165421      5.226388     
   4839000   1.0265131      17.05          5.2379079    
   4840000   1.0037202      16.854544      5.2714569    
   4841000   0.98520403     16.98114       5.2214947    
   4842000   0.9680061      16.813572      5.2470602    
   4843000   0.94227764     16.386689      5.2328504    
   4844000   1.0147919      17.401442      5.2095621    
   4845000   1.0282561      17.16885       5.2310657    
   4846000   0.96612621     16.652079      5.2482486    
   4847000   1.0272929      17.351817      5.224862     
   4848000   0.98222568     16.867756      5.2421503    
   4849000   0.98574616     16.87186       5.2153839    
   4850000   1.0096413      16.632641      5.2319817    
   4851000   0.99317733     16.36933       5.2082995    
   4852000   0.96787411     16.540673      5.229629     
   4853000   0.99464179     16.677178      5.2575312    
   4854000   0.99379784     16.76094       5.2256053    
   4855000   1.0177463      16.134952      5.234231     
   4856000   0.97772993     16.898278      5.2450228    
   4857000   0.98062534     16.275574      5.2590817    
   4858000   1.0205439      16.603677      5.2671942    
   4859000   1.0333041      16.732905      5.266709     
   4860000   0.9797258      16.939613      5.2306144    
   4861000   0.98533367     16.316267      5.2946284    
   4862000   0.99367761     16.614376      5.2547531    
   4863000   1.0044963      16.79161       5.2102434    
   4864000   1.0203323      17.217256      5.200742     
   4865000   1.0130357      16.507898      5.2518778    
   4866000   0.95963795     16.46477       5.279621     
   4867000   1.0160375      16.680514      5.2968017    
   4868000   0.97620542     16.421295      5.2642873    
   4869000   1.0234888      16.773847      5.3004331    
   4870000   1.0003467      15.608052      5.3059711    
   4871000   0.99113861     17.342917      5.2817902    
   4872000   0.96945727     16.255625      5.2822657    
   4873000   0.99269281     16.167775      5.2579785    
   4874000   1.0353735      16.832052      5.2649797    
   4875000   1.0035421      16.215652      5.2318456    
   4876000   1.0402203      16.406088      5.213859     
   4877000   0.98232017     16.965783      5.2220406    
   4878000   1.0178569      17.387359      5.2232124    
   4879000   0.99992091     16.966625      5.2673086    
   4880000   1.0124975      17.025652      5.2509426    
   4881000   1.0274988      17.121902      5.2338284    
   4882000   0.99933707     16.415476      5.2338935    
   4883000   0.97344835     16.546689      5.2490522    
   4884000   0.9850128      16.868672      5.2243229    
   4885000   1.0345344      16.889045      5.2343387    
   4886000   0.97709642     16.757208      5.1849856    
   4887000   1.0084801      16.763014      5.223954     
   4888000   0.99941783     16.524509      5.2741495    
   4889000   0.98084631     16.963446      5.2518866    
   4890000   1.0209475      16.744292      5.2171926    
   4891000   1.0062042      16.478512      5.228284     
   4892000   0.99230233     16.867537      5.2063077    
   4893000   0.99279962     17.567623      5.2477946    
   4894000   0.96066806     16.660043      5.2339101    
   4895000   1.0094565      16.924107      5.2486048    
   4896000   1.0022309      17.09987       5.2961954    
   4897000   0.98318713     16.461331      5.230897     
   4898000   1.0056469      16.380513      5.2259714    
   4899000   1.0032871      16.684841      5.2504381    
   4900000   0.9903486      16.951283      5.1755045    
   4901000   1.0335697      17.005166      5.2359841    
   4902000   0.97955745     16.388256      5.2154345    
   4903000   0.98828595     16.451168      5.2077917    
   4904000   1.0191624      16.750883      5.2269107    
   4905000   1.0289202      16.802403      5.2128816    
   4906000   1.0088704      16.888718      5.2387061    
   4907000   0.95590496     16.693034      5.2402143    
   4908000   0.99908939     16.6414        5.2257226    
   4909000   1.0424787      16.895295      5.2667549    
   4910000   0.97845779     16.782561      5.2680165    
   4911000   1.0016142      16.880233      5.2125444    
   4912000   1.0022677      16.876461      5.2118372    
   4913000   0.99287619     16.258568      5.2247887    
   4914000   1.0140538      16.355385      5.2096845    
   4915000   1.0070243      16.899901      5.2257697    
   4916000   1.0316531      17.195158      5.2348542    
   4917000   1.040826       17.077422      5.2634393    
   4918000   1.0130464      15.974643      5.2479835    
   4919000   1.0275729      16.657252      5.303797     
   4920000   0.9524065      17.000686      5.2635044    
   4921000   0.98957246     16.738865      5.2563472    
   4922000   1.0403513      16.295319      5.2266369    
   4923000   0.95015617     16.714402      5.214759     
   4924000   0.98946289     16.473774      5.2123545    
   4925000   0.97309676     16.803746      5.2248814    
   4926000   1.0040301      17.071794      5.2515793    
   4927000   1.0001011      16.604859      5.2569289    
   4928000   0.99775961     16.483458      5.2759751    
   4929000   1.0067053      16.933744      5.2526957    
   4930000   0.96013414     16.643319      5.2479442    
   4931000   0.99097273     16.779241      5.2592655    
   4932000   0.98133292     16.83613       5.2519846    
   4933000   1.0053568      16.628248      5.2830094    
   4934000   0.97905938     16.587759      5.284716     
   4935000   1.0029758      16.716335      5.2896096    
   4936000   0.97997125     16.768327      5.2700951    
   4937000   1.0184357      17.472016      5.2288365    
   4938000   1.006382       16.741854      5.2919269    
   4939000   1.0307437      16.412768      5.23968      
   4940000   1.016683       16.870001      5.2354969    
   4941000   1.0056739      17.127033      5.2308236    
   4942000   1.0325919      16.568361      5.2472288    
   4943000   1.0156331      16.472262      5.2307484    
   4944000   1.0197705      16.757978      5.2226273    
   4945000   0.9911164      16.808086      5.2258879    
   4946000   1.0149523      16.740539      5.2512641    
   4947000   1.0040095      17.03381       5.2103536    
   4948000   1.0400101      16.926808      5.2366948    
   4949000   0.99271545     16.738725      5.248289     
   4950000   1.0029054      16.559297      5.2357591    
   4951000   0.99641892     16.768815      5.2460059    
   4952000   0.99314596     16.366499      5.258884     
   4953000   0.99602819     16.698873      5.2384939    
   4954000   1.0257357      16.64325       5.2403708    
   4955000   1.0385169      16.551865      5.2270567    
   4956000   1.0121995      17.27046       5.2292407    
   4957000   1.0313123      16.685655      5.1938107    
   4958000   1.0131027      16.677399      5.2557921    
   4959000   0.99895159     16.770245      5.2310235    
   4960000   1.0156449      16.409028      5.2099028    
   4961000   1.0151138      16.780526      5.2613032    
   4962000   0.9768047      16.251239      5.2261191    
   4963000   1.0381564      16.430968      5.2225221    
   4964000   1.0055764      16.845774      5.2219035    
   4965000   0.99333068     16.41919       5.2297323    
   4966000   0.98007453     16.392467      5.2231795    
   4967000   0.98576848     16.699691      5.2209108    
   4968000   0.97891321     16.614334      5.2030352    
   4969000   0.98505206     16.567326      5.2456507    
   4970000   0.98880101     16.64237       5.2402694    
   4971000   0.99453459     16.88375       5.21355      
   4972000   1.0107326      16.498408      5.2608961    
   4973000   1.0241172      17.010968      5.2351002    
   4974000   1.0045407      17.333478      5.2209396    
   4975000   0.98816643     16.381319      5.2233425    
   4976000   1.0226563      17.03622       5.2231002    
   4977000   1.0554272      17.157282      5.2645197    
   4978000   1.0469762      17.07311       5.256945     
   4979000   1.0260853      16.98764       5.2387269    
   4980000   1.0354243      16.795583      5.25108      
   4981000   1.0111763      16.642166      5.2648603    
   4982000   0.99209789     16.656839      5.2725044    
   4983000   1.0230435      17.074275      5.243526     
   4984000   0.9948567      16.921318      5.2730015    
   4985000   0.9983694      16.786563      5.231596     
   4986000   1.0105477      16.891224      5.2359088    
   4987000   1.0362929      16.933481      5.2462441    
   4988000   0.99772349     16.790356      5.2190693    
   4989000   0.96873693     16.376853      5.2849274    
   4990000   0.98113691     16.516885      5.2300109    
   4991000   1.0300591      16.816681      5.2195841    
   4992000   0.97348175     16.280285      5.2584513    
   4993000   1.0068076      16.723423      5.2473428    
   4994000   1.0327114      17.262578      5.2419671    
   4995000   0.97530128     17.040228      5.2545803    
   4996000   0.96794024     16.559467      5.2356809    
   4997000   0.97288475     16.554666      5.2103184    
   4998000   1.0107885      16.400008      5.2478609    
   4999000   0.94481093     16.715554      5.2625672    
   5000000   0.9994446      17.038837      5.2102083    
   5001000   1.0323823      17.071514      5.2346951    
   5002000   0.97146834     16.903246      5.2530267    
   5003000   1.0328551      16.732212      5.2244084    
   5004000   1.0049496      16.507027      5.2076334    
   5005000   1.0331336      16.606361      5.2289126    
   5006000   0.99829879     16.885358      5.2169429    
   5007000   0.99544615     17.202702      5.2142541    
   5008000   0.97353317     16.889091      5.2641215    
   5009000   1.0797601      17.050219      5.2478199    
   5010000   1.0307351      17.023151      5.2293886    
   5011000   0.96222147     16.585342      5.2245621    
   5012000   0.96259481     16.300981      5.2238286    
   5013000   0.99928591     16.774396      5.2092714    
   5014000   1.0298661      16.885108      5.2407131    
   5015000   0.97823005     17.116179      5.2390452    
   5016000   1.0304203      16.159463      5.2329459    
   5017000   0.9961307      16.31446       5.2399639    
   5018000   1.0127751      17.254089      5.2110835    
   5019000   0.99006546     17.108432      5.2299026    
   5020000   0.97748774     16.739475      5.2096571    
   5021000   1.013696       16.62585       5.2625487    
   5022000   0.99728557     16.385025      5.2322085    
   5023000   0.9812731      16.810893      5.2513212    
   5024000   0.95186008     17.006026      5.2311254    
   5025000   1.0316927      16.494933      5.2405894    
   5026000   0.9917405      16.825015      5.2528114    
   5027000   0.99113834     16.534537      5.2976384    
   5028000   1.003136       16.080015      5.2558945    
   5029000   0.95049465     16.730819      5.280396     
   5030000   0.99535816     16.922641      5.2497464    
   5031000   1.0303292      17.075138      5.2805678    
   5032000   1.0439946      16.821513      5.2506619    
   5033000   0.98639639     16.512392      5.2209869    
   5034000   0.99030979     16.498133      5.2781193    
   5035000   1.0350788      16.37263       5.2689579    
   5036000   0.99083821     16.443939      5.2690667    
   5037000   0.96656715     16.437375      5.2129741    
   5038000   1.0274473      16.407651      5.2599284    
   5039000   0.95824354     16.435753      5.2737661    
   5040000   1.0322544      16.959168      5.2514322    
   5041000   0.99306347     16.736496      5.2851566    
   5042000   1.0390187      16.932883      5.2521127    
   5043000   1.025705       16.520227      5.2386717    
   5044000   0.99407783     16.648619      5.2323513    
   5045000   1.003544       17.085989      5.2170623    
   5046000   0.99562116     16.882764      5.2207136    
   5047000   1.0170901      16.146383      5.2193068    
   5048000   1.0038717      16.726225      5.2328263    
   5049000   1.0156581      17.028553      5.2408869    
   5050000   0.99587759     16.961756      5.2532883    
   5051000   1.0460414      17.161816      5.2311221    
   5052000   1.0159252      16.608464      5.2237746    
   5053000   0.96102748     16.627455      5.2736077    
   5054000   1.017651       16.757706      5.2572406    
   5055000   1.0136119      16.435935      5.2753464    
   5056000   1.0567207      17.389069      5.2771472    
   5057000   0.99107938     16.181188      5.2632056    
   5058000   1.0179468      16.966768      5.2216261    
   5059000   0.9785058      16.312543      5.2822972    
   5060000   0.9986769      16.91199       5.2106013    
   5061000   1.0329385      16.80532       5.2667851    
   5062000   1.0228357      16.759741      5.2316679    
   5063000   0.99720006     17.03218       5.2486502    
   5064000   0.94986897     16.5312        5.2381219    
   5065000   1.0357661      16.567576      5.2167919    
   5066000   1.015805       16.596864      5.2604907    
   5067000   0.98179535     16.758044      5.2529771    
   5068000   0.95918844     16.443451      5.2452903    
   5069000   0.98072903     16.256829      5.2785782    
   5070000   1.0216945      16.668597      5.2752345    
   5071000   0.99900304     16.854177      5.2608592    
   5072000   0.9983907      17.011602      5.3220605    
   5073000   0.97814858     17.167051      5.2590346    
   5074000   1.0028133      16.825977      5.2749457    
   5075000   0.97533808     16.546535      5.2522719    
   5076000   1.0028674      16.699265      5.2605558    
   5077000   0.99918707     16.394647      5.2646163    
   5078000   0.97067402     16.226783      5.2651368    
   5079000   0.97096736     16.246851      5.2534665    
   5080000   1.0023946      17.072325      5.2613079    
   5081000   1.0092687      16.790977      5.2688571    
   5082000   1.0067665      16.60634       5.2439444    
   5083000   0.99008798     16.827226      5.2350932    
   5084000   0.99432725     16.826771      5.2308138    
   5085000   1.0200236      16.259842      5.240547     
   5086000   0.97602274     16.893106      5.220201     
   5087000   0.97984094     16.727715      5.2355644    
   5088000   1.0007204      16.847085      5.255482     
   5089000   1.0014202      16.901938      5.2385533    
   5090000   1.025513       17.119796      5.2373997    
   5091000   1.0200181      16.824604      5.2082093    
   5092000   0.99301174     16.318374      5.2332305    
   5093000   0.99140528     16.557645      5.2355636    
   5094000   0.98915707     16.444025      5.2559759    
   5095000   0.99625464     16.562017      5.2148355    
   5096000   0.99424027     16.557793      5.2581018    
   5097000   0.99757893     16.664028      5.2151021    
   5098000   0.99357817     16.684017      5.2111348    
   5099000   1.0075519      16.662592      5.2301487    
   5100000   1.0135328      16.779483      5.2318147    
Loop time of 11959.7 on 1 procs for 5000000 steps with 1101 atoms

Performance: 361212.843 tau/day, 418.070 timesteps/s
100.0% CPU use with 1 MPI tasks x 1 OpenMP threads

MPI task timing breakdown:
Section |  min time  |  avg time  |  max time  |%varavg| %total
---------------------------------------------------------------
Pair    | 7082.8     | 7082.8     | 7082.8     |   0.0 | 59.22
Bond    | 259.73     | 259.73     | 259.73     |   0.0 |  2.17
Neigh   | 4273.1     | 4273.1     | 4273.1     |   0.0 | 35.73
Comm    | 2.9029     | 2.9029     | 2.9029     |   0.0 |  0.02
Output  | 12.956     | 12.956     | 12.956     |   0.0 |  0.11
Modify  | 291.02     | 291.02     | 291.02     |   0.0 |  2.43
Other   |            | 37.27      |            |       |  0.31

Nlocal:           1101 ave        1101 max        1101 min
Histogram: 1 0 0 0 0 0 0 0 0 0
Nghost:              0 ave           0 max           0 min
Histogram: 1 0 0 0 0 0 0 0 0 0
Neighs:         307601 ave      307601 max      307601 min
Histogram: 1 0 0 0 0 0 0 0 0 0

Total # of neighbors = 307601
Ave neighs/atom = 279.38329
Ave special neighs/atom = 1.9981835
Neighbor list builds = 34608
Dangerous builds = 0

# This simulation is done
# Move onto the next one
clear
OMP_NUM_THREADS environment is not set. Defaulting to 1 thread. (src/comm.cpp:98)
  using 1 OpenMP thread(s) per MPI task
next f
jump SELF

###
# Reference paper:
# K. Kremer and G. S. Grest
# Dynamics of entangled linear polymer melts: A molecular-dynamics simulation
# J Chem Phys 92, 5057 (1990)

##################################
# MIHIR: for branched polymers
# LJ minimum first to expand and explore, then collapse
###

###
# Looping through the various plusshaped polymers to simulate,
# define variables to switch through
variable f index bb51nuc1bl25bn4d30tot100 bb101nuc1bl50bn4d30tot200 bb151nuc1bl75bn4d30tot300 bb201nuc1bl100bn4d30tot400 bb251nuc1bl125bn4d30tot500 bb301nuc1bl150bn4d30tot600 bb351nuc1bl175bn4d30tot700 bb401nuc1bl200bn4d30tot800 bb451nuc1bl225bn4d30tot900 bb501nuc1bl250bn4d30tot1000 bb551nuc1bl275bn4d30tot1100 bb601nuc1bl300bn4d30tot1200
###


###
# Box and units  (use LJ units and periodic boundaries)
###

units lj
log plusshaped/logs/$f.log
log plusshaped/logs/bb601nuc1bl300bn4d30tot1200.log
