#atom_style bond #no stiffness
atom_style angle #with stiffness

boundary        p p p
###
# Pair interactions require lists of neighbours to be calculated
###

#neighbor 0.3 bin
neighbor 4 bin

neigh_modify every 1 delay 1 check yes
atom_modify sort 0 0
### Generate RESTART file, SPECIAL format, not a .txt file ###
### Useful if simulation crashes ###

restart 1000000 plusshaped/restarts/$f.restart
restart 1000000 plusshaped/restarts/bb501nuc1bl250bn4d30tot1000.restart
#############################



### READ "start" data file ###

read_data plusshaped/$f.dat
read_data plusshaped/bb501nuc1bl250bn4d30tot1000.dat
Reading data file ...
  orthogonal box = (-1000 -1000 -1000) to (1000 1000 1000)
  1 by 1 by 1 MPI processor grid
  reading atoms ...
  1001 atoms
  scanning bonds ...
  3 = max bonds/atom
  scanning angles ...
  6 = max angles/atom
  reading bonds ...
  1000 bonds
  reading angles ...
  1002 angles
Finding 1-2 1-3 1-4 neighbors ...
  special bond factors lj:    0        0        0       
  special bond factors coul:  0        0        0       
     4 = max # of 1-2 neighbors
     4 = max # of 1-3 neighbors
     8 = max # of 1-4 neighbors
    12 = max # of special neighbors
  special bonds CPU = 0.001 seconds
  read_data CPU = 0.080 seconds

######################

### READ "REstart" data file ###

######################



###
# Define groups (atom type 1 is group 'all')
###
group all type 1
1001 atoms in group all


###
# Dump configs - "simple dumpings"
###

###
# Dump configs + box coords
###

dump   1   all   custom   1000  plusshaped/trjs/$f.lammpstrj  id  x y z  ix iy iz
dump   1   all   custom   1000  plusshaped/trjs/bb501nuc1bl250bn4d30tot1000.lammpstrj  id  x y z  ix iy iz
dump_modify   1   format line "%d %.5f %.5f %.5f %d %d %d"

########################################################################


###################################################################
# Stiffness term
#
# E = K * (1+cos(theta)), K>0
#
angle_style   cosine
#change this coefficient to change stiffness (e.g. 1,5,10)
angle_coeff   1 1.0
###################################################################

###################################################################
# Pair interaction between non-bonded atoms
#
#  Lennard-Jones 12-6 potential with cutoff:
#  potential E=4epsilon[ (sigma/r)^12 - (sigma/r)^6]  for r<r_cut
#
#  1.12246 = 2^(1/6) is the minimum of the potential


pair_style      lj/cut 1.12246152962189
#pair_style      lj/cut 3

#
#  pair_modify shift yes adds a constant to the potential such

#  that E(r_cut)=0. Forces remains unchanged.
#

pair_modify     shift yes

#
#  pair_coeff for lj/cut, specify 4:
#    * atom type interacting with
#    * atom type
#    * epsilon (energy units)
#    * sigma (distance units)
#

pair_coeff      1 1 1.0 1.0
###################################################################

###################################################################
# Pair interaction between non-bonded atoms
#
#  soft potential, for PUSHING apart overlapping atoms
#  potential E=A*(1 + cos(pi*r/r_c))
#
#  1.12246 = 2^(1/6) is the cut-off r_c

#pair_style     soft 1.12246152962189

#
#  pair_coeff for soft, specify 3:
#    * atom type interacting with
#    * atom type
#    * A
#
#

#pair_coeff      1 1 100.0
###################################################################

###################################################################
# Pair interaction between bonded atoms
#
# Fene potential + Lennard Jones 12-6:

#
#  E= - 0.5 K R0^2 ln[ 1- (r/R0)^2]
#     + 4epsilon[ (sigma/r)^12 - (sigma/r)^6] + epsilon
#

bond_style   fene


#
# For style fene, specify:
#   * bond type
#   * K (energy/distance^2)
#   * R0 (distance)
#   * epsilon (energy)  (LJ component)
#   * sigma (distance)  (LJ component)
#


special_bonds fene #<=== I M P O R T A N T (new command)
Finding 1-2 1-3 1-4 neighbors ...
  special bond factors lj:    0        1        1       
  special bond factors coul:  0        1        1       
     4 = max # of 1-2 neighbors
    12 = max # of special neighbors
  special bonds CPU = 0.000 seconds

bond_coeff   1   30   2   1.0   1.0


###################################################

###################################################################
# Pair interaction between bonded atoms
#
# Harmonic potential:
#
#  E= K * (R-R0)^2
#

#bond_style   harmonic

#
# For style harmonic, specify:
#   * bond type
#   * K (energy/distance^2)
#   * R0 (distance)
#

#bond_coeff   1   60.0   1.0
#bond_coeff   2   harmonic 0.1   1.0

###################################################
compute 1 all gyration
variable rog equal c_1
#compute 2 all coord/atom cutoff 1.1

#dump 2 all custom 10000 contact_number.dump id c_2


###
# Set up fixes
###
thermo_style   custom   step  temp enthalpy c_1
fix 1 all nve   ###NVE ensemble

fix 2 all   langevin   1.0 1.0 1.0  100103   ###Langevin integrator Tstart Tstop 1/friction rndseed


##### Sample thermodynamic info  (temperature, energy, pressure, etc.) #####
thermo 1000









############################################################################

###
# set timestep of integrator

timestep 0.01

###
# run integration for a number of steps
###
#run 0
#variable r equal c_1
#if "$r < 63.1" then "quit 1"

# lj potential minimum, cause molecule to explore
run 100000
Generated 0 of 0 mixed pair_coeff terms from geometric mixing rule
Neighbor list info ...
  update: every = 1 steps, delay = 1 steps, check = yes
  max neighbors/atom: 2000, page size: 100000
  master list distance cutoff = 5.1224615
  ghost atom cutoff = 5.1224615
  binsize = 2.5612308, bins = 781 781 781
  1 neighbor lists, perpetual/occasional/extra = 1 0 0
  (1) pair lj/cut, perpetual
      attributes: half, newton on
      pair build: half/bin/newton
      stencil: half/bin/3d
      bin: standard
WARNING: Communication cutoff 5.12246152962189 is shorter than a bond length based estimate of 5.455. This may lead to errors. (src/comm.cpp:723)
Per MPI rank memory allocation (min/avg/max) = 1861 | 1861 | 1861 Mbytes
   Step          Temp         Enthalpy         c_1      
         0   0              13.219708      131.3837     
      1000   0.99482738     17.656428      130.92809    
      2000   0.98002356     18.014851      130.26502    
      3000   1.0039441      18.188202      129.34567    
      4000   0.9670193      17.708654      128.76428    
      5000   1.0020674      18.766921      128.42857    
      6000   1.0477077      18.318673      127.98058    
      7000   1.0275754      18.265137      127.39888    
      8000   0.95729694     18.701178      127.06232    
      9000   0.97390733     18.69171       126.73231    
     10000   0.99494345     18.731752      126.18298    
     11000   0.98749152     18.206906      125.82613    
     12000   1.0161513      18.517098      125.50105    
     13000   1.0369976      19.181064      125.00448    
     14000   0.98908838     18.880571      124.52363    
     15000   1.014992       19.301156      124.09288    
     16000   1.0166897      19.036522      123.83082    
     17000   0.97128001     18.946079      123.37383    
     18000   0.95253234     18.220957      123.03205    
     19000   1.0507814      19.016295      122.79315    
     20000   1.003982       19.043059      122.32921    
     21000   0.99432413     18.918004      121.95344    
     22000   0.97223386     19.255848      121.53145    
     23000   0.98626137     18.924963      121.22186    
     24000   1.004748       19.040235      121.05244    
     25000   1.0029521      19.151302      120.98613    
     26000   0.97810331     18.973377      120.79386    
     27000   0.98315703     19.181508      120.6119     
     28000   0.98187545     18.957106      120.28658    
     29000   0.99950434     19.505132      120.30613    
     30000   1.0000708      19.322575      119.99345    
     31000   1.0511087      19.96337       119.63841    
     32000   0.96494635     19.099617      119.11815    
     33000   0.9746724      19.719998      119.05763    
     34000   1.0096436      19.490892      118.76485    
     35000   1.0178056      19.47261       118.45025    
     36000   1.0015369      18.993993      118.05407    
     37000   1.0096452      19.436648      117.88015    
     38000   0.99809847     19.357897      117.59235    
     39000   1.0088352      19.269296      117.50542    
     40000   1.0250818      19.4207        117.45823    
     41000   1.042171       19.224312      117.28669    
     42000   1.0043876      19.170857      116.98703    
     43000   1.0274605      19.215094      116.58955    
     44000   1.012553       19.182011      116.21165    
     45000   0.98143502     18.883491      116.17858    
     46000   1.0163074      19.71957       115.8759     
     47000   1.0141327      19.516289      115.65767    
     48000   1.0508463      20.040196      115.54073    
     49000   1.0317263      19.336908      115.1767     
     50000   1.007503       19.529928      114.93186    
     51000   1.0094385      19.691248      115.01124    
     52000   1.0504355      19.749857      114.78328    
     53000   1.030373       19.478111      114.54555    
     54000   1.0276784      19.560249      114.25413    
     55000   0.99480445     19.86997       113.8505     
     56000   1.0198072      19.521509      113.70562    
     57000   1.0416924      20.293572      113.63072    
     58000   1.0178327      19.643119      113.42492    
     59000   0.99265808     20.165865      113.14731    
     60000   1.0085775      19.86813       112.86642    
     61000   0.95529001     19.373818      112.71743    
     62000   0.94344328     19.448555      112.38699    
     63000   1.0030114      19.743292      112.17216    
     64000   1.0169544      19.534592      111.94247    
     65000   0.98852082     20.117125      111.85061    
     66000   1.0436826      20.012187      111.96701    
     67000   1.0182856      19.400689      111.74226    
     68000   0.9725573      19.844223      111.7026     
     69000   0.99272583     19.820654      111.45572    
     70000   0.96455538     19.891362      111.21486    
     71000   1.0020374      20.256603      111.25003    
     72000   0.97648811     20.19898       111.26356    
     73000   0.9877203      19.419306      111.08701    
     74000   1.0600445      19.591311      111.00206    
     75000   1.0131339      19.995235      110.99218    
     76000   1.0032302      19.611063      110.70703    
     77000   1.0307227      19.684498      110.55619    
     78000   1.0035549      19.89141       110.20115    
     79000   0.98909011     19.687049      109.93465    
     80000   1.0133179      18.858636      109.89387    
     81000   1.0045888      19.714797      109.68553    
     82000   1.0358256      19.621946      109.62695    
     83000   0.9745158      19.727452      109.41836    
     84000   1.0116165      19.848917      109.11259    
     85000   1.017236       19.469575      108.72655    
     86000   1.0501979      20.241889      108.51195    
     87000   0.99525012     19.680402      108.36289    
     88000   1.0198571      20.320649      108.48475    
     89000   0.96989703     19.857638      108.41105    
     90000   0.95426198     19.260814      108.14897    
     91000   1.016573       20.045355      108.07581    
     92000   0.99092196     19.491747      107.90623    
     93000   0.95578777     19.860579      107.77604    
     94000   1.0497114      20.378811      107.57936    
     95000   1.0186454      20.409759      107.20816    
     96000   0.98523452     20.011505      107.23623    
     97000   0.99859891     19.52502       106.96203    
     98000   1.0077644      19.936572      106.76705    
     99000   1.0512418      19.51367       106.6335     
    100000   1.0100418      20.166455      106.29593    
Loop time of 378.569 on 1 procs for 100000 steps with 1001 atoms

Performance: 228228.162 tau/day, 264.153 timesteps/s
100.0% CPU use with 1 MPI tasks x 1 OpenMP threads

MPI task timing breakdown:
Section |  min time  |  avg time  |  max time  |%varavg| %total
---------------------------------------------------------------
Pair    | 1.8759     | 1.8759     | 1.8759     |   0.0 |  0.50
Bond    | 4.3102     | 4.3102     | 4.3102     |   0.0 |  1.14
Neigh   | 367.03     | 367.03     | 367.03     |   0.0 | 96.95
Comm    | 0.038549   | 0.038549   | 0.038549   |   0.0 |  0.01
Output  | 0.27451    | 0.27451    | 0.27451    |   0.0 |  0.07
Modify  | 4.6549     | 4.6549     | 4.6549     |   0.0 |  1.23
Other   |            | 0.3816     |            |       |  0.10

Nlocal:           1001 ave        1001 max        1001 min
Histogram: 1 0 0 0 0 0 0 0 0 0
Nghost:              0 ave           0 max           0 min
Histogram: 1 0 0 0 0 0 0 0 0 0
Neighs:           5537 ave        5537 max        5537 min
Histogram: 1 0 0 0 0 0 0 0 0 0

Total # of neighbors = 5537
Ave neighs/atom = 5.5314685
Ave special neighs/atom = 1.998002
Neighbor list builds = 1101
Dangerous builds = 0

# Replace lj potential, now collapse
pair_style      lj/cut 3

# Cutoff simul when gyration under 5
# Variable created with equal requires v_ + 'name'
fix 3 all halt 1000 v_rog < 5

run 5000000
Generated 0 of 0 mixed pair_coeff terms from geometric mixing rule
Per MPI rank memory allocation (min/avg/max) = 1861 | 1861 | 1861 Mbytes
   Step          Temp         Enthalpy         c_1      
    100000   1.0100418      19.562151      106.29593    
    101000   0.98259857     19.574465      106.12362    
    102000   1.0715908      18.997441      105.87126    
    103000   1.0208446      19.212312      105.78133    
    104000   0.99879499     19.376147      105.56352    
    105000   1.0333509      19.362223      105.14419    
    106000   1.0157548      19.182087      105.12695    
    107000   1.024923       19.727288      104.85276    
    108000   1.0348729      19.313808      104.65054    
    109000   1.0028931      19.408789      104.40132    
    110000   1.0014499      19.011449      104.50329    
    111000   1.0359134      19.804991      104.24753    
    112000   1.0435437      18.899939      104.21602    
    113000   0.98458457     19.052846      104.09958    
    114000   0.97353539     19.045684      103.90462    
    115000   1.0281921      19.354869      104.01272    
    116000   0.97195121     18.503795      103.99916    
    117000   1.0078346      19.37897       103.87618    
    118000   0.99160327     19.323629      103.84982    
    119000   1.0000686      19.349214      103.4129     
    120000   1.0237853      19.117428      102.9925     
    121000   1.0576601      19.714955      103.00485    
    122000   0.94419468     18.933351      102.95208    
    123000   1.0094091      19.240242      102.70444    
    124000   0.99270008     19.261527      102.55564    
    125000   0.95803396     19.76568       102.55047    
    126000   1.008618       19.10845       102.47394    
    127000   0.98848647     19.118234      102.03123    
    128000   0.98820952     19.455068      101.74488    
    129000   1.030832       18.676784      101.53079    
    130000   1.018823       19.026743      101.23091    
    131000   1.0327923      19.588423      100.98879    
    132000   1.0085597      19.573141      100.73344    
    133000   1.0074321      19.214355      100.52264    
    134000   0.99056474     19.214208      100.35379    
    135000   1.0189993      19.271165      100.26478    
    136000   0.94683828     19.312711      100.18532    
    137000   0.996421       18.740599      100.46614    
    138000   1.00858        18.92256       100.2008     
    139000   0.99373483     19.182956      100.07868    
    140000   0.97343747     18.604158      99.735127    
    141000   1.000385       18.997972      99.645717    
    142000   0.98177421     18.7647        99.426279    
    143000   1.0128302      19.427168      99.104949    
    144000   1.0418355      19.406879      98.923555    
    145000   1.0260072      18.91295       98.930092    
    146000   1.0208539      19.827276      98.660436    
    147000   0.99201741     19.944186      98.420088    
    148000   0.93198283     18.74204       97.982008    
    149000   0.99818328     19.530395      97.746462    
    150000   1.0000483      18.994005      97.633514    
    151000   1.0209146      18.877902      97.519329    
    152000   1.014699       19.291697      97.398422    
    153000   0.96864409     19.210844      96.859038    
    154000   0.98770255     18.97836       96.60293     
    155000   0.99193222     18.882216      96.455818    
    156000   0.98965911     19.017543      96.490753    
    157000   0.97566679     19.253678      96.382787    
    158000   0.98948499     19.249684      96.122524    
    159000   0.96686372     18.650293      96.140636    
    160000   1.0134685      18.582498      96.126465    
    161000   1.0202005      18.954468      95.817901    
    162000   1.020248       19.092508      95.644644    
    163000   0.99027402     19.020844      95.615406    
    164000   1.0129591      19.292832      95.53348     
    165000   1.0351556      19.163637      95.307363    
    166000   0.96345999     19.141304      95.05946     
    167000   0.98503512     18.879124      94.572465    
    168000   0.96346376     19.123152      94.399234    
    169000   0.97496291     18.534177      94.149612    
    170000   1.0223113      19.669363      93.870676    
    171000   1.040599       19.463075      93.807307    
    172000   0.95858385     18.755184      93.519134    
    173000   0.97495699     19.668665      93.31601     
    174000   0.99675715     18.885009      92.981093    
    175000   0.95975095     18.931655      92.94051     
    176000   0.99347064     18.586645      92.751795    
    177000   1.0086383      18.731167      92.628125    
    178000   1.0295867      18.586472      92.723397    
    179000   1.0087069      19.102714      92.848722    
    180000   0.98952836     18.89883       92.698384    
    181000   0.9731416      18.845853      92.642172    
    182000   0.99537097     19.185729      92.602943    
    183000   0.9817036      19.484517      92.486281    
    184000   1.0270602      19.074354      92.302235    
    185000   0.97322911     18.900109      91.907292    
    186000   0.96702737     19.190989      91.895603    
    187000   0.99948839     19.525257      91.565102    
    188000   0.98450565     19.054495      91.394899    
    189000   1.0082649      19.345144      91.358604    
    190000   1.0026605      18.539973      91.2603      
    191000   0.996013       18.886934      91.110843    
    192000   1.0149609      19.408554      90.886979    
    193000   0.96865731     19.077923      90.510107    
    194000   0.97946585     18.659974      90.657796    
    195000   0.98286449     19.395065      90.71166     
    196000   1.0303216      18.927758      90.587885    
    197000   0.98466587     18.40024       90.269429    
    198000   0.95887928     18.861503      90.141007    
    199000   0.99649274     19.134616      89.982138    
    200000   0.99229325     18.563691      89.7836      
    201000   1.0049756      18.471496      89.861301    
    202000   0.98712666     19.004515      89.7653      
    203000   1.016745       19.115719      89.552567    
    204000   1.0125158      18.681608      89.479073    
    205000   1.0740774      18.788309      89.189447    
    206000   1.0125248      18.618256      88.790755    
    207000   0.98115146     19.148261      88.6756      
    208000   1.0241494      18.509876      88.392459    
    209000   1.011127       18.632731      88.075854    
    210000   0.98275666     18.656377      87.78375     
    211000   1.0499122      18.987406      87.821643    
    212000   1.0142464      19.319114      87.496404    
    213000   1.0084004      18.67372       87.181096    
    214000   1.0027082      18.896458      86.650029    
    215000   1.026805       18.917598      86.365889    
    216000   0.97485356     18.509554      86.51124     
    217000   1.0589363      19.334217      86.490432    
    218000   0.99765945     19.110762      86.230244    
    219000   1.0297691      18.47371       85.987316    
    220000   1.0076622      19.160208      85.950419    
    221000   0.93883098     18.754742      85.793116    
    222000   1.0109361      19.054186      85.617937    
    223000   0.95788122     18.70378       85.560271    
    224000   1.0055274      18.598159      85.323109    
    225000   0.96678797     18.477556      85.040266    
    226000   1.0154488      19.151758      84.894763    
    227000   0.97241064     19.307856      84.702002    
    228000   1.0018942      18.898193      84.549027    
    229000   1.0017532      18.829857      84.354727    
    230000   0.97981684     19.106474      84.07192     
    231000   0.95132305     18.771003      83.929786    
    232000   1.0052104      18.761714      83.669227    
    233000   0.98154872     18.582054      83.723004    
    234000   0.96211775     18.91944       83.554682    
    235000   1.018364       19.079015      83.787883    
    236000   0.95022835     18.823509      83.656896    
    237000   0.98712776     19.051288      83.427032    
    238000   1.0026326      18.937497      83.277538    
    239000   1.0148773      18.728207      82.980898    
    240000   1.0474622      18.855394      82.740557    
    241000   1.0107339      18.426184      82.503511    
    242000   0.99483207     18.444561      82.246636    
    243000   0.97407926     18.154457      82.102259    
    244000   0.98871168     18.769864      81.775217    
    245000   0.98242371     18.551859      81.574376    
    246000   1.0249495      18.739997      81.339965    
    247000   0.98966559     19.301424      81.341322    
    248000   0.98180164     19.218374      81.077433    
    249000   0.98374785     18.773329      80.816953    
    250000   0.97922937     18.563463      81.023713    
    251000   1.0424609      18.496306      80.701365    
    252000   0.97695313     19.024709      80.490638    
    253000   0.9933822      18.152486      80.314923    
    254000   0.98869714     18.620603      80.301809    
    255000   0.97598001     18.350513      80.134922    
    256000   1.0389649      18.587455      79.969605    
    257000   1.0210772      18.574696      79.644917    
    258000   1.0042951      18.591649      79.665091    
    259000   0.98571021     18.630542      79.618554    
    260000   0.98222939     18.650149      79.39609     
    261000   1.0286981      19.40895       79.266919    
    262000   1.0300371      19.02529       79.291749    
    263000   1.049982       18.654893      79.037352    
    264000   1.0298586      18.766953      78.959176    
    265000   0.95850861     18.163103      78.943472    
    266000   0.98675513     18.541126      78.606239    
    267000   0.99615928     18.602988      78.570375    
    268000   0.99835342     18.771218      78.132958    
    269000   1.0327128      18.92023       78.013704    
    270000   1.0308431      18.765592      77.710683    
    271000   1.0156162      18.523342      77.567117    
    272000   0.99318988     18.295853      77.073685    
    273000   0.97287105     18.087831      77.144257    
    274000   0.97073412     18.576879      76.878642    
    275000   1.0209016      18.395267      76.71157     
    276000   0.96758643     18.799199      76.580482    
    277000   1.004327       18.856286      76.488296    
    278000   1.0412373      18.971609      76.574892    
    279000   0.99077713     18.4147        76.315992    
    280000   1.0373546      19.022265      76.089258    
    281000   1.0489274      18.650523      76.280454    
    282000   0.99302389     19.093134      76.234716    
    283000   0.96851154     18.604209      76.027179    
    284000   1.0041243      18.701726      76.036771    
    285000   0.98701101     18.570259      75.96282     
    286000   1.0391608      18.297617      75.852944    
    287000   1.0290245      18.780222      75.785135    
    288000   0.96078201     18.50403       75.899372    
    289000   0.99589528     18.5651        75.741697    
    290000   0.97931501     18.906713      75.592234    
    291000   0.99583097     18.302357      75.369051    
    292000   0.96401777     18.626252      75.0918      
    293000   1.0090033      19.128857      74.968182    
    294000   0.99513105     18.810466      74.793208    
    295000   0.97766781     18.058869      74.839373    
    296000   1.0128382      18.963738      74.640659    
    297000   0.98379768     18.200482      74.605313    
    298000   1.0279193      18.162874      74.4626      
    299000   1.0264307      18.969235      74.313687    
    300000   1.0229866      18.695103      74.127628    
    301000   1.030929       18.577057      74.088391    
    302000   1.0310782      18.144002      73.702392    
    303000   1.0044581      18.249375      73.683912    
    304000   0.9792603      18.556087      73.605637    
    305000   1.0312633      18.816226      73.466104    
    306000   0.98593772     18.234338      73.067433    
    307000   1.0379087      18.562099      72.862342    
    308000   0.99196269     18.290047      72.685629    
    309000   0.9713758      18.380977      72.31572     
    310000   0.97463872     17.957968      72.143869    
    311000   1.0260427      18.436938      71.904706    
    312000   1.0272783      18.718837      71.789306    
    313000   1.002025       18.383503      71.733928    
    314000   0.98935671     18.373171      71.648221    
    315000   0.98650065     19.073348      71.587434    
    316000   0.99469375     18.763876      71.429257    
    317000   1.0011679      18.666736      71.134694    
    318000   1.0367506      18.374224      70.777449    
    319000   0.98185512     18.095234      70.620423    
    320000   0.97167405     18.72784       70.193248    
    321000   1.0313398      18.444604      70.18322     
    322000   0.98755464     18.718049      70.140581    
    323000   0.94993856     17.705953      69.878928    
    324000   1.0185566      18.594941      69.720523    
    325000   1.0213624      18.541667      69.427961    
    326000   0.99740183     17.747707      69.301658    
    327000   1.0560013      18.41338       69.251588    
    328000   1.011174       18.378716      69.375115    
    329000   0.99740242     18.493996      69.310792    
    330000   0.9984888      18.094898      69.187317    
    331000   0.97706129     18.290399      68.989672    
    332000   1.0194782      18.006728      69.00189     
    333000   0.98263892     18.550198      68.736379    
    334000   0.99634311     18.53326       68.711674    
    335000   1.0052573      18.462167      68.657576    
    336000   0.99247912     17.844893      68.415592    
    337000   0.98255644     18.324102      68.278114    
    338000   1.0013653      18.282995      68.139685    
    339000   0.9944477      18.674551      68.03764     
    340000   1.0197586      18.245004      67.794863    
    341000   0.98078893     18.071261      67.520114    
    342000   1.00225        18.214414      67.445355    
    343000   0.98221015     18.147003      66.991837    
    344000   1.0076126      18.094312      66.778702    
    345000   0.98283672     18.270568      66.480154    
    346000   0.99314959     18.231146      66.277257    
    347000   0.99003448     18.037636      66.26454     
    348000   0.9965766      18.864943      66.369402    
    349000   1.0387924      18.464372      66.387518    
    350000   1.032112       18.912077      66.196362    
    351000   1.004684       18.542442      65.817338    
    352000   0.99026015     18.370275      65.652002    
    353000   1.0157879      18.214479      65.61505     
    354000   0.99937562     18.255216      65.509717    
    355000   1.0510548      18.320279      65.398557    
    356000   1.0154542      19.092621      64.931926    
    357000   0.99436451     18.565919      64.556832    
    358000   1.0045051      18.301794      64.505952    
    359000   1.0055907      18.307495      64.384529    
    360000   1.0308406      18.327734      64.161738    
    361000   1.0547366      18.508263      63.699419    
    362000   1.0128907      18.390706      63.518832    
    363000   1.0197946      18.411677      63.320809    
    364000   0.99713449     17.914548      63.452865    
    365000   0.98911835     18.563631      63.002137    
    366000   1.0153111      18.473701      63.058669    
    367000   0.98081595     18.142553      62.99055     
    368000   1.035067       17.801486      62.896729    
    369000   1.0385097      18.450182      62.641287    
    370000   1.0096077      17.997874      62.312852    
    371000   1.0155581      18.659432      62.274872    
    372000   1.0408623      18.923316      62.105992    
    373000   1.0081308      18.639366      62.041885    
    374000   0.97957476     18.016018      62.097722    
    375000   0.97943988     18.453917      61.762017    
    376000   0.99313217     17.471029      61.709155    
    377000   0.93590116     18.172759      61.37719     
    378000   1.0515719      18.213431      61.214274    
    379000   1.0121502      18.220259      61.274685    
    380000   0.99700892     18.146055      61.182139    
    381000   1.0015077      18.498283      61.049107    
    382000   1.0046926      18.202497      60.834455    
    383000   1.0403526      18.747958      60.748219    
    384000   0.99866201     17.881002      60.499639    
    385000   0.99104691     17.951013      60.600176    
    386000   0.99962457     18.241359      60.518138    
    387000   1.0214255      17.936393      60.387727    
    388000   0.96623703     17.961798      60.407296    
    389000   1.0057955      18.157468      60.425753    
    390000   1.0320099      17.938179      60.467776    
    391000   0.98862409     18.768972      60.288205    
    392000   0.99752352     18.873411      60.136565    
    393000   0.96896241     18.506655      60.005822    
    394000   0.99842861     18.718682      59.925842    
    395000   1.0221387      18.230425      59.716896    
    396000   1.0326466      18.511061      59.52859     
    397000   1.026594       17.886779      59.395915    
    398000   1.0193151      18.346992      59.356806    
    399000   0.97462158     18.417936      59.096358    
    400000   1.0107077      18.56028       59.066655    
    401000   1.0218726      18.378872      58.770926    
    402000   0.99448869     18.142097      58.729372    
    403000   1.0314607      18.270425      58.573429    
    404000   0.98286448     17.835238      58.475616    
    405000   0.9932207      18.354535      58.180811    
    406000   0.99624999     18.244149      57.956471    
    407000   0.98339249     18.63387       57.812141    
    408000   1.0231373      18.48191       57.522218    
    409000   0.9979974      18.016105      57.46077     
    410000   1.018029       18.373202      57.194371    
    411000   1.0395527      18.655476      57.121869    
    412000   0.98160226     17.649243      56.799197    
    413000   0.96054126     18.365139      56.605743    
    414000   1.0001432      18.605313      56.388531    
    415000   0.98388085     18.46745       56.332822    
    416000   0.99910389     18.361425      56.271096    
    417000   0.9627075      18.057003      56.327467    
    418000   0.96361498     18.216294      56.358255    
    419000   0.97430457     18.452068      56.394665    
    420000   1.0261438      18.542311      56.381182    
    421000   1.0273857      17.939234      56.281238    
    422000   0.94878461     18.603142      56.209179    
    423000   1.0162114      18.500689      56.037496    
    424000   1.0127252      18.311681      55.983766    
    425000   0.96913619     18.259027      55.771202    
    426000   1.018907       18.011674      55.70828     
    427000   0.99601771     18.260297      55.568913    
    428000   0.97875702     18.34939       55.512154    
    429000   0.95157524     17.949088      55.444629    
    430000   1.0019191      18.368534      55.334233    
    431000   0.98098339     18.331782      55.367235    
    432000   1.0036434      17.750322      55.109585    
    433000   1.0479778      17.437697      55.160672    
    434000   0.9888897      18.041486      55.285524    
    435000   1.0088754      17.848477      55.207127    
    436000   0.9837099      18.323326      55.197309    
    437000   1.0136569      18.342174      54.979767    
    438000   1.0224274      18.611913      54.658526    
    439000   1.0082219      18.192956      54.414127    
    440000   1.0095103      18.248084      54.052191    
    441000   0.9819443      18.191983      53.647381    
    442000   0.97685249     18.345535      53.401023    
    443000   1.0184825      18.37901       53.14416     
    444000   0.99415082     18.096433      53.047289    
    445000   1.0014325      18.099314      52.780831    
    446000   1.0003543      17.978852      52.626842    
    447000   1.0226532      18.426538      52.292587    
    448000   1.0187131      18.499252      52.054452    
    449000   1.0148698      18.18769       51.924739    
    450000   0.96401918     18.056931      51.798757    
    451000   1.0030091      17.496349      51.504976    
    452000   1.0303879      17.867777      51.553939    
    453000   0.95144424     17.567497      51.375636    
    454000   1.0323868      18.210121      51.15606     
    455000   1.0304172      18.795912      51.244951    
    456000   0.99473634     18.153688      51.049009    
    457000   1.0471714      17.771587      51.061643    
    458000   1.0225914      17.726092      51.175038    
    459000   0.96112406     18.142683      51.287262    
    460000   1.0172931      18.39107       51.345406    
    461000   1.0211935      17.953569      51.180552    
    462000   0.97934384     18.05435       51.334485    
    463000   0.99480788     17.845798      51.369232    
    464000   1.0049997      17.665749      51.419146    
    465000   1.0255552      17.797579      51.291316    
    466000   0.99103259     18.021779      51.188983    
    467000   0.98743882     17.70052       51.034703    
    468000   1.0232224      18.171082      50.873371    
    469000   0.94752798     18.01956       50.560582    
    470000   1.0112161      18.138762      50.578128    
    471000   1.0302041      18.020982      50.451989    
    472000   1.0126677      18.322923      50.414367    
    473000   0.97924054     17.991177      50.182201    
    474000   0.97331802     17.936149      50.046055    
    475000   0.94626461     17.774299      49.857875    
    476000   1.0315923      18.199661      49.606018    
    477000   1.0012337      18.080599      49.251805    
    478000   0.99091695     18.217221      49.272271    
    479000   1.0276932      18.68508       48.971347    
    480000   1.0224213      17.881638      48.779228    
    481000   0.97893249     17.88157       48.895094    
    482000   1.0205058      18.105288      48.760136    
    483000   1.0259941      18.246277      48.625541    
    484000   1.0096139      18.513276      48.373237    
    485000   1.0000357      18.075446      48.262903    
    486000   0.98323707     17.532798      48.168471    
    487000   0.98093427     17.939041      47.931711    
    488000   1.0429656      17.90647       47.824774    
    489000   0.99663979     17.832532      48.025322    
    490000   0.97119965     17.261139      47.96643     
    491000   1.0037913      17.975321      47.835645    
    492000   0.9811171      18.255829      47.746332    
    493000   1.0390265      18.015131      47.795002    
    494000   0.97521122     18.144123      47.605905    
    495000   0.98130138     17.700413      47.120967    
    496000   1.0215057      18.191795      46.787199    
    497000   0.9673404      18.386855      46.636622    
    498000   0.97888542     17.778885      46.52869     
    499000   1.027584       18.50917       46.584862    
    500000   1.003905       17.655679      46.730367    
    501000   1.0083561      18.183414      46.760438    
    502000   1.0279214      18.276976      46.534292    
    503000   1.0372565      17.790286      46.560337    
    504000   1.0034105      18.046504      46.377217    
    505000   1.0275051      17.976185      46.443842    
    506000   0.99153083     18.500034      46.430206    
    507000   0.98801429     17.793386      46.172952    
    508000   1.0177411      18.2709        46.055219    
    509000   1.0087792      17.77057       45.972591    
    510000   1.0218956      17.973398      45.970888    
    511000   1.0114715      18.269304      45.726389    
    512000   0.94934387     17.128272      45.549795    
    513000   1.0244481      18.221823      45.511596    
    514000   1.0072132      18.655204      45.478019    
    515000   1.0310942      17.80252       45.226187    
    516000   0.98272283     17.621415      44.934466    
    517000   1.0510851      18.191626      44.684167    
    518000   1.0171862      17.903706      44.560373    
    519000   0.99515395     17.907654      44.315727    
    520000   0.97222535     17.903285      43.996068    
    521000   0.96830079     18.138513      44.015269    
    522000   0.9781033      18.376249      43.816477    
    523000   0.99305251     17.763317      43.800574    
    524000   1.0559363      18.700528      43.632029    
    525000   1.0316181      17.889217      43.383049    
    526000   0.99847838     17.860621      43.216829    
    527000   0.97413253     17.957502      43.011185    
    528000   1.0193873      17.087427      43.027963    
    529000   0.96352946     17.735365      43.002253    
    530000   1.0059877      18.030372      42.847198    
    531000   0.99697978     17.469745      42.477583    
    532000   0.98444717     18.453835      42.218944    
    533000   0.98994646     17.86731       42.151104    
    534000   0.95755658     18.402584      42.137842    
    535000   0.98601569     17.542379      42.083992    
    536000   1.0044748      17.670532      41.834658    
    537000   0.99146429     18.257019      41.610956    
    538000   0.99882344     18.550363      41.58804     
    539000   1.0187105      18.031995      41.468215    
    540000   0.97566534     18.202088      41.594096    
    541000   1.0011492      17.673935      41.486446    
    542000   1.0194299      17.826021      41.151849    
    543000   1.0006026      17.916203      40.894072    
    544000   1.026503       18.118546      40.753072    
    545000   0.98134824     18.063236      40.387856    
    546000   1.0415202      18.342735      40.032752    
    547000   0.96212594     18.110662      39.769255    
    548000   0.99310777     17.856697      39.683635    
    549000   1.0101209      17.78697       39.816413    
    550000   1.0075163      18.335251      39.735796    
    551000   0.98608018     18.110898      39.536486    
    552000   0.98228505     17.387177      39.298856    
    553000   1.0380267      18.172234      39.081477    
    554000   0.99113807     17.922956      38.998831    
    555000   1.0073785      17.84592       38.618431    
    556000   0.98253904     17.573832      38.406571    
    557000   1.0612054      18.122855      38.28384     
    558000   0.97379083     17.343091      37.984991    
    559000   0.98907841     18.174125      37.68303     
    560000   1.0249772      17.890673      37.721137    
    561000   0.95705045     17.923823      37.543483    
    562000   1.0111678      17.907028      37.363843    
    563000   0.94979293     17.148394      37.47384     
    564000   1.0130693      17.75441       37.416131    
    565000   1.0144987      17.865121      37.108353    
    566000   1.0263715      17.36242       37.030093    
    567000   0.96089801     17.540864      36.703753    
    568000   1.017947       17.614824      36.564178    
    569000   0.97059944     17.635593      36.442483    
    570000   0.98959611     17.44283       36.093947    
    571000   1.0038912      17.97332       35.895254    
    572000   1.0347074      18.90139       35.856968    
    573000   0.97565932     18.139502      35.709921    
    574000   1.0141615      17.802098      35.556551    
    575000   1.0198568      17.748267      35.206649    
    576000   1.0102494      17.931708      35.236431    
    577000   1.0138032      17.934946      35.05094     
    578000   1.0144104      17.669232      34.951179    
    579000   1.0086187      17.727974      34.905451    
    580000   0.98674194     17.486128      34.964116    
    581000   0.98087828     17.403612      34.781195    
    582000   1.0171119      17.628872      34.836934    
    583000   1.0327033      17.653843      34.750554    
    584000   1.0579403      18.354113      34.623726    
    585000   1.0038351      17.422156      34.388057    
    586000   1.0052759      18.124947      34.123412    
    587000   0.98094678     17.762394      33.996295    
    588000   1.0020233      17.574603      33.796384    
    589000   1.0229301      17.717866      33.702922    
    590000   0.98577398     17.731657      33.455796    
    591000   1.0026733      17.752119      33.346034    
    592000   0.98553131     18.216305      33.199339    
    593000   1.0365494      18.095283      33.232485    
    594000   0.97174615     17.255608      33.037187    
    595000   0.97391453     17.801539      32.721079    
    596000   0.95907503     17.844826      32.635068    
    597000   1.0181896      17.994596      32.515773    
    598000   1.0094618      18.183525      32.52061     
    599000   1.0089545      18.386031      32.481987    
    600000   1.0052363      17.644588      32.382415    
    601000   0.97980549     17.955502      32.137552    
    602000   0.98468006     17.840938      32.113845    
    603000   0.9802993      17.664516      32.045558    
    604000   1.0233144      18.128931      32.034193    
    605000   0.98669548     17.968536      31.730085    
    606000   0.99814088     18.308872      31.538878    
    607000   1.0304253      17.846859      31.344166    
    608000   0.98944418     17.905456      31.049575    
    609000   1.0280016      17.917414      30.972122    
    610000   0.99566623     18.276014      30.729635    
    611000   0.99071595     18.017537      30.623039    
    612000   1.0554059      17.884666      30.412955    
    613000   1.0054573      17.478921      30.291627    
    614000   1.0130917      17.667019      30.176928    
    615000   1.0066829      17.271667      29.92418     
    616000   0.98557641     18.156794      29.754627    
    617000   1.030117       17.9823        29.748994    
    618000   0.97939989     17.343805      29.468308    
    619000   1.0080869      17.62311       29.344308    
    620000   0.96091258     18.043379      29.450693    
    621000   0.98207471     17.934675      29.336233    
    622000   1.0152377      17.757085      29.054528    
    623000   1.0243401      17.623807      28.706378    
    624000   1.0143798      17.908941      28.606225    
    625000   0.97143823     17.16127       28.544306    
    626000   0.99933411     17.936293      28.167535    
    627000   1.0013818      18.174127      28.005931    
    628000   0.99419062     17.527964      28.026305    
    629000   0.97495649     17.781037      27.886915    
    630000   1.0115637      17.911479      27.686563    
    631000   0.9990431      17.791687      27.44904     
    632000   1.0314369      17.564055      27.267733    
    633000   0.97606285     17.873057      26.949986    
    634000   1.020166       17.153851      26.734521    
    635000   1.046884       18.14493       26.651453    
    636000   1.0130791      17.538222      26.754777    
    637000   1.0203516      18.200314      26.627533    
    638000   1.0240193      17.483235      26.52007     
    639000   0.98074023     17.342616      26.367498    
    640000   1.012451       18.226503      26.295628    
    641000   0.96368457     17.547741      26.23767     
    642000   0.99568656     17.452076      26.17193     
    643000   1.0015894      17.485191      25.966816    
    644000   0.96734809     16.891561      25.779421    
    645000   0.97515854     17.302344      25.806499    
    646000   0.98017058     17.269472      25.582685    
    647000   0.99627305     17.608763      25.329762    
    648000   1.0077677      18.031544      25.334565    
    649000   1.0473192      17.556766      25.27297     
    650000   0.9552959      17.495897      25.415489    
    651000   0.98748313     17.599762      25.247578    
    652000   1.0122709      18.216122      25.028101    
    653000   1.0567833      17.265203      24.999667    
    654000   1.0002291      17.732039      24.711592    
    655000   0.98533654     17.42188       24.782793    
    656000   0.97837545     17.377928      24.773092    
    657000   1.0368085      17.733477      24.548739    
    658000   0.98354188     16.955061      24.254611    
    659000   0.96543058     17.78738       24.236481    
    660000   0.99983205     17.354303      24.218548    
    661000   0.99721319     17.748066      24.134899    
    662000   0.99262219     17.484047      23.94341     
    663000   1.0227309      17.283391      23.823494    
    664000   0.99171989     17.493215      23.661825    
    665000   1.0429965      17.731657      23.497737    
    666000   1.0044183      17.676151      23.452491    
    667000   0.99511353     17.453997      23.353525    
    668000   0.96617628     18.100395      23.200959    
    669000   1.0454177      17.729639      23.173724    
    670000   1.0058174      17.149598      23.084921    
    671000   1.0106579      17.451963      23.033533    
    672000   0.99757641     17.618624      22.684797    
    673000   0.97584982     18.189482      22.30013     
    674000   1.0202297      17.33602       22.286912    
    675000   0.99493996     17.811143      22.332854    
    676000   1.0044788      17.80197       22.217513    
    677000   1.0191306      17.536013      22.139826    
    678000   0.9873319      17.392912      22.039703    
    679000   1.0350815      17.837778      21.906408    
    680000   0.97550889     17.643101      21.770849    
    681000   1.0310384      17.733915      21.5102      
    682000   0.99035805     17.065197      21.5281      
    683000   0.9900236      17.130876      21.424378    
    684000   1.0076933      17.682998      21.348385    
    685000   1.0171106      17.509765      21.262662    
    686000   0.96368355     17.661317      21.035136    
    687000   0.99164661     17.446549      20.692856    
    688000   0.96104671     17.35823       20.678896    
    689000   1.019762       17.751783      20.423939    
    690000   0.96385654     18.047524      20.225405    
    691000   1.0506774      17.633044      19.91418     
    692000   1.0080415      17.501879      19.728538    
    693000   1.0070925      17.232514      19.645685    
    694000   1.0008053      16.831405      19.386888    
    695000   1.0233921      18.093896      19.352099    
    696000   1.0065975      17.104775      19.315292    
    697000   1.0002602      17.176671      19.328631    
    698000   0.97449464     17.342437      19.271462    
    699000   0.9954267      17.069629      19.229895    
    700000   0.95088462     16.902048      19.082329    
    701000   1.007091       17.802604      19.105346    
    702000   1.0026761      17.614362      18.823596    
    703000   0.97808181     17.352999      18.598899    
    704000   0.9775731      17.833418      18.425997    
    705000   0.99808194     17.023825      18.49349     
    706000   1.029647       17.454935      18.267068    
    707000   0.97177107     17.348011      18.374837    
    708000   0.9678129      17.510628      18.292008    
    709000   0.99987578     17.451291      18.259792    
    710000   1.0046431      16.965035      18.23935     
    711000   0.98887959     17.350945      18.185735    
    712000   0.9848176      17.010773      18.077496    
    713000   0.98089735     16.995128      18.148197    
    714000   1.0469707      17.299282      17.877391    
    715000   1.0092659      17.423558      17.698893    
    716000   1.0095081      17.441369      17.677948    
    717000   1.0176405      17.716558      17.790456    
    718000   1.029473       17.741123      18.012622    
    719000   1.0022004      17.670362      18.188451    
    720000   1.0251992      17.889208      17.874418    
    721000   1.0185023      17.720549      17.882339    
    722000   1.0188865      17.286235      17.758875    
    723000   0.98998899     17.652763      17.778089    
    724000   1.0270922      16.927507      17.557987    
    725000   0.99974867     17.688173      17.616181    
    726000   1.0105661      17.176501      17.295058    
    727000   0.98502008     17.15942       17.06293     
    728000   0.99572401     17.439885      16.744771    
    729000   1.032064       17.974929      16.478628    
    730000   1.0086835      17.082118      16.63312     
    731000   0.9874022      17.209876      16.376655    
    732000   0.99061837     17.874186      16.155429    
    733000   1.0200662      17.663249      15.998036    
    734000   1.0027734      17.179636      15.976616    
    735000   1.0293806      18.059766      15.850236    
    736000   1.0112101      16.907885      15.591164    
    737000   0.97682694     17.469475      15.255068    
    738000   1.0217499      17.467211      15.455522    
    739000   1.0906345      18.341605      15.256538    
    740000   0.99779356     17.011255      15.22832     
    741000   0.97636915     17.089963      14.965862    
    742000   1.0131627      17.793041      14.860441    
    743000   0.96073857     17.715893      14.828044    
    744000   1.0273256      17.24257       14.644822    
    745000   1.0012009      17.383091      14.487488    
    746000   0.98575123     17.290614      14.358403    
    747000   1.024407       17.240792      14.196493    
    748000   1.0283483      17.645552      13.934015    
    749000   0.97681012     17.401058      13.857976    
    750000   1.0590043      17.491884      13.827996    
    751000   0.98909256     16.986983      13.563862    
    752000   0.98839593     17.055177      13.365015    
    753000   0.98347186     17.542534      13.534523    
    754000   0.99875655     17.849875      13.390896    
    755000   0.97830441     18.041058      13.436849    
    756000   1.0185329      17.209316      13.462314    
    757000   1.0029181      17.301054      13.183365    
    758000   1.0124593      17.404519      12.929375    
    759000   0.98888954     17.263362      12.736728    
    760000   1.0282066      17.547577      12.667424    
    761000   0.96382536     17.26762       12.566521    
    762000   1.0010541      16.83776       12.307278    
    763000   0.9697748      17.068643      12.112743    
    764000   0.97110639     17.062262      11.933556    
    765000   0.98019647     17.14196       11.864974    
    766000   1.0646652      17.359653      11.746521    
    767000   1.0035382      17.720526      11.566597    
    768000   0.99705259     17.262278      11.423457    
    769000   0.98669595     17.238888      11.586031    
    770000   0.98767702     16.686147      11.302819    
    771000   0.96880237     17.66684       11.189715    
    772000   1.0061973      16.933365      11.356451    
    773000   1.0127889      17.288867      11.277173    
    774000   0.96044695     16.935419      11.13081     
    775000   1.0061243      18.178162      11.25543     
    776000   1.0557706      17.234434      11.202278    
    777000   1.0427289      17.607656      10.91888     
    778000   1.027956       16.790205      10.721255    
    779000   1.000453       16.827614      10.741748    
    780000   1.0265606      16.817138      10.778956    
    781000   0.95288367     17.0041        11.05065     
    782000   1.0188632      16.984692      10.931454    
    783000   1.0394882      17.461308      10.584961    
    784000   1.0004535      16.512103      10.376203    
    785000   0.96678085     16.57315       10.402629    
    786000   1.0149126      17.337332      10.173574    
    787000   1.0019111      17.501049      10.141004    
    788000   1.062534       16.69171       10.202457    
    789000   0.99958401     17.669376      9.8691842    
    790000   0.96446368     16.494891      9.7395644    
    791000   1.0101873      16.964595      9.4838863    
    792000   0.94395178     17.325125      9.4434494    
    793000   1.0038165      16.582167      9.2441175    
    794000   1.0349977      17.141702      9.1834561    
    795000   0.97683504     16.633664      9.0105275    
    796000   0.9866849      17.169944      8.9436148    
    797000   0.98290663     17.43507       8.697158     
    798000   0.97421945     17.174221      8.4926473    
    799000   1.0019863      16.651419      8.3908194    
    800000   1.0297937      17.117009      8.5963061    
    801000   0.96443795     16.686586      8.5610944    
    802000   0.98327601     16.95635       8.4632244    
    803000   1.0316327      16.786528      8.4432527    
    804000   0.96936379     16.961304      8.4290664    
    805000   1.0522419      17.420178      8.2635746    
    806000   1.0321089      17.53113       7.9884594    
    807000   0.99733047     17.40322       7.825305     
    808000   1.0170394      16.809464      7.5965277    
    809000   0.95117321     16.939522      7.3294464    
    810000   0.97022283     16.758131      7.2202531    
    811000   0.97884671     17.070955      7.1058489    
    812000   1.0016854      16.178346      7.1768799    
    813000   1.0038138      16.723473      6.995337     
    814000   1.0299295      17.470678      6.7709555    
    815000   1.006584       16.4221        6.5375784    
    816000   0.97578974     17.338816      6.3539846    
    817000   1.0404611      16.953273      6.1347521    
    818000   0.9879287      16.212701      5.9191832    
    819000   0.98761967     16.207938      5.8865718    
    820000   0.95171172     17.184067      5.7364763    
    821000   1.0186584      16.818668      5.4963251    
    822000   1.0170511      16.716398      5.3560358    
    823000   1.0035161      17.50042       5.3083054    
    824000   1.0287673      16.884203      5.2950543    
    825000   1.0129514      17.277142      5.2699002    
    826000   0.99336353     16.782034      5.3090776    
    827000   1.0015327      16.443178      5.3479289    
    828000   1.0466794      17.086436      5.2491725    
    829000   1.0327701      16.81777       5.2033044    
    830000   0.97732091     16.357735      5.2308113    
    831000   1.0004928      16.731822      5.1858549    
    832000   1.0232322      16.808378      5.2437062    
    833000   0.99809957     16.841643      5.2585068    
    834000   0.9871391      16.571079      5.2224331    
    835000   1.0089773      16.76681       5.2308897    
    836000   0.9825339      16.480162      5.190702     
    837000   1.0033607      16.672071      5.1940101    
    838000   1.0024393      16.815659      5.1281203    
    839000   1.0230024      16.618258      5.1135622    
    840000   1.0018154      16.940825      5.1346863    
    841000   0.99342418     16.856203      5.1170192    
    842000   0.99826556     17.306626      5.1352614    
    843000   1.0022159      16.994996      5.1574974    
    844000   1.0097861      16.190928      5.1438227    
    845000   1.0850119      16.843869      5.1521962    
    846000   1.0462059      16.480655      5.1250709    
    847000   0.96318722     16.781529      5.0874789    
    848000   0.97692118     16.68495       5.1264268    
    849000   0.9891757      16.708604      5.1302728    
    850000   1.0170662      16.602474      5.0950226    
    851000   0.99971744     16.846566      5.1022832    
    852000   1.0243594      16.826329      5.1139318    
    853000   0.99880996     17.500864      5.0795208    
    854000   1.0016868      16.544645      5.1241837    
    855000   1.0366762      16.921803      5.0579323    
    856000   0.96396617     16.646151      5.0725052    
    857000   0.99289533     16.590583      5.0958226    
    858000   0.98621606     17.025236      5.0861831    
    859000   1.0219679      16.205993      5.1133388    
    860000   1.0377488      17.307382      5.0732842    
    861000   1.0391345      17.052466      5.0436556    
    862000   1.034902       16.654505      5.032312     
    863000   1.0247695      16.878384      5.1009535    
    864000   1.0289365      17.168058      5.0621539    
    865000   1.0572971      16.843645      5.0499575    
    866000   1.0103222      17.125308      5.0778329    
    867000   1.0041244      16.634906      5.0623194    
    868000   0.99280809     16.887745      5.0885424    
    869000   0.99349899     16.729495      5.1068712    
    870000   0.98940643     16.437768      5.1240388    
    871000   1.0426652      16.520666      5.121529     
    872000   0.9776635      16.54308       5.1523093    
    873000   0.99198351     16.74983       5.1335105    
    874000   1.0439894      16.913431      5.1197628    
    875000   0.99555629     16.919204      5.0613639    
    876000   0.98731474     16.239718      5.0845404    
    877000   1.0003427      16.229555      5.0930274    
    878000   0.97933913     16.489091      5.1018769    
    879000   0.97751708     16.361896      5.0864277    
    880000   0.98234494     16.881014      5.1148965    
    881000   1.0070118      16.945363      5.1760114    
    882000   0.98849818     16.606504      5.171742     
    883000   1.0035041      16.948237      5.1371984    
    884000   0.98127983     16.693976      5.1378671    
    885000   1.0128077      16.504333      5.1529648    
    886000   0.98745683     16.475716      5.1319062    
    887000   0.9715657      16.989775      5.0945599    
    888000   1.0016754      16.788877      5.1072794    
    889000   1.0376292      17.435328      5.0764927    
    890000   1.0020747      16.433701      5.0763651    
    891000   1.0171215      16.815107      5.084791     
    892000   1.0570614      16.457         5.0862057    
    893000   1.0262159      17.142288      5.0771658    
    894000   1.0106562      16.270277      5.0837892    
    895000   0.98836587     16.719378      5.11277      
    896000   1.0153923      16.663914      5.1552311    
    897000   1.027173       17.162745      5.1080617    
    898000   1.0167569      17.077072      5.0632035    
    899000   0.97555006     16.736478      5.1306333    
    900000   0.98752032     16.40181       5.0940256    
    901000   1.0028553      16.6628        5.1209449    
    902000   1.0035332      16.927627      5.0883865    
    903000   1.0023785      16.991646      5.095018     
    904000   0.96392122     16.583013      5.0740047    
    905000   0.95884493     16.381706      5.0683594    
    906000   0.99693845     17.170888      5.0948771    
    907000   1.001015       16.324147      5.0991719    
    908000   1.0327026      16.645413      5.0813247    
    909000   0.99786453     16.651072      5.1038889    
    910000   1.0244843      16.969799      5.0974047    
    911000   0.98911954     16.769136      5.1007998    
    912000   1.0323694      16.988865      5.0751845    
    913000   1.0168334      17.87287       5.0635391    
    914000   1.0327871      16.74381       5.0666728    
    915000   1.0142095      16.446378      5.0750667    
    916000   0.98990208     17.072346      5.0732905    
    917000   0.99894626     16.947299      5.0768121    
    918000   1.0181561      16.876655      5.0705092    
    919000   0.96519434     16.677845      5.0605392    
    920000   1.0085605      16.638933      5.0561938    
    921000   0.98889782     16.409504      5.0549316    
    922000   1.0278174      16.792273      5.0756877    
    923000   1.0039704      16.70275       5.0901632    
    924000   1.0603647      16.810796      5.0785133    
    925000   1.0200114      16.730133      5.0348208    
    926000   1.0023683      16.430428      5.0759507    
    927000   0.95434469     17.621814      5.0637375    
    928000   0.97304802     16.519238      5.120795     
    929000   1.0304473      17.325034      5.1423418    
    930000   0.98072291     16.928525      5.0828344    
    931000   0.97933497     17.077255      5.0830535    
    932000   0.99097085     16.67406       5.0911813    
    933000   1.0284688      17.454445      5.0998912    
    934000   0.95989199     16.837723      5.1447356    
    935000   1.0208616      16.569456      5.1064854    
    936000   1.0005783      16.864737      5.1173114    
    937000   1.0470634      16.636981      5.0820818    
    938000   1.006173       16.174666      5.1064416    
    939000   0.96904228     16.28851       5.0881942    
    940000   0.96748392     16.092269      5.0604492    
    941000   1.0549154      17.079241      5.0628562    
    942000   0.98135443     16.654324      5.0697989    
    943000   0.96063316     17.326524      5.0683818    
    944000   1.0139802      16.37897       5.0897781    
    945000   1.0224492      16.741         5.1292266    
    946000   1.0447929      17.247394      5.0822329    
    947000   0.96601403     17.158094      5.1042913    
    948000   0.96156223     16.447517      5.0952347    
    949000   1.0271697      16.457991      5.1069427    
    950000   1.0371027      16.965533      5.1126641    
    951000   1.0037632      16.784813      5.1136916    
    952000   1.0073763      16.96676       5.1016532    
    953000   0.9966811      16.440555      5.10423      
    954000   0.96164324     15.965478      5.1073638    
    955000   0.9780269      16.211146      5.1000434    
    956000   1.0365284      17.141727      5.1181604    
    957000   0.99664946     17.729293      5.0603353    
    958000   1.0258348      16.860437      5.0891723    
    959000   0.9959535      16.772912      5.0603928    
    960000   1.0301656      17.094645      5.0887137    
    961000   0.99129324     16.739836      5.1066521    
    962000   0.96911232     16.790182      5.1071832    
    963000   1.006867       16.55902       5.0746283    
    964000   0.99787814     16.529523      5.0645203    
    965000   0.98078732     16.69254       5.0699726    
    966000   0.99603948     17.302258      5.0766045    
    967000   0.97333713     17.034562      5.0370351    
    968000   0.98062289     16.824309      5.0979533    
    969000   1.0441762      17.042103      5.1125507    
    970000   1.0208874      16.869125      5.1114495    
    971000   1.0144728      16.604969      5.1446982    
    972000   1.0371386      16.631487      5.086151     
    973000   1.0177577      16.825412      5.1210604    
    974000   0.98378833     16.1001        5.1082157    
    975000   0.98751694     16.999267      5.0984725    
    976000   1.0043935      16.432508      5.1047498    
    977000   1.0271985      16.743138      5.093944     
    978000   1.0172715      16.476021      5.1343747    
    979000   1.0048742      16.318867      5.1376275    
    980000   0.93841635     16.988376      5.0962603    
    981000   0.96962432     16.607991      5.1002723    
    982000   0.98674877     17.10293       5.0688862    
    983000   0.99792601     16.816321      5.0686502    
    984000   0.99888261     16.973241      5.0776518    
    985000   1.0271123      16.487723      5.0942174    
    986000   1.0304141      16.948193      5.118752     
    987000   0.99574899     16.841462      5.0865719    
    988000   1.0118755      17.084319      5.0970149    
    989000   0.99390221     16.816565      5.0777361    
    990000   0.95349665     16.038129      5.0950137    
    991000   1.0046554      16.477213      5.1317926    
    992000   0.99076025     16.392294      5.0806485    
    993000   1.0183691      17.075066      5.0498776    
    994000   1.0215738      16.429121      5.1010325    
    995000   1.0059974      17.072403      5.0849075    
    996000   0.99677955     17.061389      5.0960011    
    997000   1.0504539      17.012086      5.0652873    
    998000   0.96330714     17.303733      5.0753127    
    999000   0.97371837     16.352584      5.0964663    
   1000000   1.0180387      16.932227      5.0854881    
   1001000   1.0072505      16.58785       5.0912089    
   1002000   0.96523903     16.769235      5.1128796    
   1003000   1.0222104      16.576248      5.0734818    
   1004000   1.0331833      16.374388      5.124382     
   1005000   1.0554153      17.299043      5.0996068    
   1006000   0.93615932     17.167004      5.1115941    
   1007000   0.97445464     16.782323      5.1166612    
   1008000   0.94695205     16.409671      5.1098099    
   1009000   0.95026626     16.552941      5.1137359    
   1010000   0.97958252     16.564065      5.1202678    
   1011000   1.0164676      16.812874      5.1088087    
   1012000   1.0199793      17.128804      5.1107449    
   1013000   1.0183298      16.756513      5.1178887    
   1014000   0.95962157     17.148344      5.075692     
   1015000   1.0388737      16.994472      5.1081095    
   1016000   0.99042919     16.68022       5.0770002    
   1017000   1.0138722      17.191757      5.0826851    
   1018000   0.99586341     16.531936      5.0979125    
   1019000   0.9983338      17.002467      5.0794468    
   1020000   1.009212       16.992987      5.0924925    
   1021000   0.98155846     16.691891      5.1743389    
   1022000   1.0355457      16.99033       5.109852     
   1023000   1.0342822      16.973551      5.1172772    
   1024000   0.96673852     17.286856      5.1390637    
   1025000   0.97280262     16.47418       5.0845573    
   1026000   0.97736517     16.490466      5.0941888    
   1027000   1.0205491      16.615725      5.064838     
   1028000   0.98994658     16.629138      5.0754938    
   1029000   0.97731137     16.980118      5.0659054    
   1030000   1.0366654      17.124237      5.0421251    
   1031000   1.0180135      16.685701      5.0890845    
   1032000   0.9978231      17.582322      5.0981003    
   1033000   0.99778593     16.309615      5.1201715    
   1034000   0.95938046     16.44636       5.0931378    
   1035000   1.0021623      16.815957      5.0641231    
   1036000   1.0288195      17.075876      5.0686472    
   1037000   1.0593287      16.729815      5.0502586    
   1038000   1.0334828      17.292294      5.0568348    
   1039000   0.98138583     17.490331      5.0650146    
   1040000   1.0403628      17.235113      5.1036597    
   1041000   1.0451953      16.498749      5.0843189    
   1042000   1.0034275      16.616698      5.0962096    
   1043000   1.0817586      17.120481      5.0799109    
   1044000   1.0056576      16.447086      5.0861133    
   1045000   0.97493017     16.689814      5.0517926    
   1046000   0.99595143     17.003962      5.0401954    
   1047000   0.97808442     16.964508      5.0790507    
   1048000   1.017256       16.484023      5.0612899    
   1049000   1.0301087      17.402158      5.0549313    
   1050000   1.03646        16.753879      5.099434     
   1051000   0.99258623     16.695154      5.0824824    
   1052000   0.99747177     16.786307      5.1198182    
   1053000   1.0024807      16.794036      5.0873719    
   1054000   1.0077642      17.310333      5.0520686    
   1055000   0.97872138     17.147197      5.131493     
   1056000   0.97809377     17.090983      5.1279722    
   1057000   1.035073       17.450711      5.1355776    
   1058000   1.0423983      16.407831      5.1115978    
   1059000   1.0301494      17.097363      5.1217012    
   1060000   1.0428462      16.796301      5.0951432    
   1061000   0.98384893     16.718849      5.0484401    
   1062000   0.99332112     16.310015      5.0768086    
   1063000   0.98881806     16.698553      5.0537833    
   1064000   0.96356543     17.555335      5.0521639    
   1065000   1.0320846      16.58813       5.1069884    
   1066000   0.98901674     16.377474      5.0392849    
   1067000   1.0306303      16.800805      5.0934152    
   1068000   0.98533982     16.663222      5.0832192    
   1069000   1.0212383      16.872825      5.0898346    
   1070000   0.9844322      17.431153      5.0674254    
   1071000   0.94668068     16.958789      5.0563644    
   1072000   0.98273555     16.448852      5.046026     
   1073000   1.0009369      16.403845      5.0532424    
   1074000   0.97561098     16.865985      5.0705884    
   1075000   1.0559915      16.738173      5.0819496    
   1076000   1.0077163      16.323995      5.0997455    
   1077000   1.0257643      16.421311      5.0897007    
   1078000   0.97664607     16.678987      5.0936383    
   1079000   1.0140459      16.537544      5.0492225    
   1080000   0.99873116     17.427903      5.0810952    
   1081000   0.97706437     16.796444      5.09577      
   1082000   1.0047947      17.249036      5.1003708    
   1083000   1.0293638      16.702779      5.103393     
   1084000   1.01882        17.240902      5.0806158    
   1085000   1.0301727      16.867297      5.0791915    
   1086000   0.94615117     16.396244      5.1044832    
   1087000   0.97533224     16.892093      5.0720329    
   1088000   0.96352815     16.482168      5.0976936    
   1089000   0.96367208     16.372567      5.0684154    
   1090000   0.97671217     16.25115       5.0676365    
   1091000   1.029165       16.720605      5.0997831    
   1092000   0.98052117     16.675867      5.0859923    
   1093000   0.99486702     16.870936      5.0796878    
   1094000   0.97318182     16.416963      5.0793023    
   1095000   0.99875248     16.61867       5.0797622    
   1096000   1.0008171      16.526547      5.0744173    
   1097000   1.0193128      16.407648      5.0468812    
   1098000   0.99510547     17.558759      5.0828597    
   1099000   0.95400238     17.311837      5.0782855    
   1100000   1.0392156      16.703947      5.0753753    
   1101000   1.0278898      16.879173      5.039641     
   1102000   1.008456       16.665193      5.0570095    
   1103000   0.98376094     16.443924      5.0609668    
   1104000   0.95464765     16.208735      5.06257      
   1105000   0.99223385     16.587318      5.1166787    
   1106000   1.0579666      17.053871      5.1300436    
   1107000   0.98107924     16.734397      5.1176189    
   1108000   0.96752489     16.732628      5.0944057    
   1109000   1.0225319      16.839653      5.0815723    
   1110000   1.0070064      16.682157      5.0573646    
   1111000   0.99012433     16.601577      5.037445     
   1112000   0.99813994     17.109849      5.0496785    
   1113000   1.0024256      16.391309      5.0930507    
   1114000   0.99439572     16.550584      5.0883529    
   1115000   1.025841       16.649919      5.0591018    
   1116000   0.97729544     16.909746      5.1013691    
   1117000   1.0032297      16.794389      5.0646983    
   1118000   1.0089902      16.7799        5.0622635    
   1119000   1.040403       16.755493      5.0525403    
   1120000   1.0241677      16.949954      5.0640831    
   1121000   1.0043559      16.541699      5.0758476    
   1122000   1.0136188      16.73048       5.0587135    
   1123000   1.0188334      16.583831      5.0797105    
   1124000   1.0095329      16.471734      5.0604681    
   1125000   1.0194531      16.696483      5.0720882    
   1126000   1.0276573      16.487705      5.0732642    
   1127000   1.0203002      17.15571       5.0894505    
   1128000   1.0012266      16.998341      5.0863003    
   1129000   1.006106       16.100866      5.0589371    
   1130000   1.0034064      16.583482      5.1121628    
   1131000   0.9985893      16.413789      5.0529426    
   1132000   0.96477046     16.999681      5.0469839    
   1133000   0.99482548     16.633496      5.0590574    
   1134000   1.0435858      16.633201      5.0784095    
   1135000   1.0125648      16.754388      5.0600963    
   1136000   1.0260313      17.193519      5.0805898    
   1137000   0.99099695     16.586976      5.0598721    
   1138000   1.0169967      17.067179      5.0450862    
   1139000   0.9876663      15.781456      5.081517     
   1140000   0.97743716     16.885105      5.0575631    
   1141000   1.0476325      16.301554      5.0768316    
   1142000   0.95868051     16.486747      5.0584706    
   1143000   1.0115237      17.313057      5.0641648    
   1144000   1.0089364      16.761613      5.0946586    
   1145000   0.98658658     16.91728       5.0605477    
   1146000   0.99927518     17.861177      5.0295582    
   1147000   1.0205764      16.813073      5.1042048    
   1148000   1.0230058      16.689588      5.0390181    
   1149000   0.98855734     16.6714        5.0660065    
   1150000   1.039641       16.70978       5.051677     
   1151000   0.97208719     16.085783      5.0939289    
   1152000   0.98315312     16.218799      5.0931822    
   1153000   1.0032706      16.574129      5.0948139    
   1154000   1.0406665      16.024694      5.0942263    
   1155000   0.96356186     16.939352      5.0622465    
   1156000   0.96174766     16.893435      5.0642517    
   1157000   1.0138315      17.137482      5.1000641    
   1158000   0.9504651      16.196745      5.0640561    
   1159000   1.0080896      16.761264      5.107036     
   1160000   0.98871504     17.106834      5.0861258    
   1161000   0.99251451     16.720466      5.0930998    
   1162000   1.0038507      16.852311      5.1140093    
   1163000   0.96493242     16.36522       5.1247029    
   1164000   0.98424917     16.52983       5.1037013    
   1165000   1.0225316      17.240598      5.073617     
   1166000   1.0282586      16.595851      5.0890304    
   1167000   0.98377509     16.828631      5.0906846    
   1168000   0.98297937     16.719684      5.0676254    
   1169000   0.9987127      16.224658      5.0868425    
   1170000   1.0179556      17.241218      5.0844366    
   1171000   1.0241232      16.964063      5.0553806    
   1172000   0.9614416      17.421356      5.0601703    
   1173000   1.0020024      16.569047      5.0776786    
   1174000   0.9788756      17.115988      5.0603954    
   1175000   1.0277224      16.343449      5.0845439    
   1176000   0.99450985     17.289957      5.067843     
   1177000   0.98255632     16.75523       5.0705463    
   1178000   0.96891499     16.669425      5.0907357    
   1179000   1.0080153      16.538489      5.0808793    
   1180000   1.0284898      16.491522      5.0890465    
   1181000   1.0085693      17.272544      5.0906956    
   1182000   1.0122286      16.452702      5.1052525    
   1183000   0.97413739     17.094651      5.0901769    
   1184000   1.0173677      16.812381      5.0921089    
   1185000   1.0274201      16.619527      5.0859733    
   1186000   0.94356184     16.6           5.0546033    
   1187000   0.98201169     16.527414      5.073005     
   1188000   1.0297017      17.159978      5.0804979    
   1189000   0.97133704     16.65539       5.0813331    
   1190000   0.93480779     16.785452      5.0822228    
   1191000   0.99306351     16.560961      5.0680602    
   1192000   0.99684444     16.218828      5.0719558    
   1193000   1.0031068      16.394044      5.0644853    
   1194000   0.95026523     16.755037      5.0737689    
   1195000   1.0584188      17.048871      5.054729     
   1196000   0.96229728     16.436039      5.0497495    
   1197000   1.0034656      16.115653      5.0808864    
   1198000   1.0036923      16.943562      5.0600569    
   1199000   1.0078559      17.068044      5.0700835    
   1200000   0.99383445     16.711348      5.0763364    
   1201000   0.99116773     15.936327      5.0714903    
   1202000   1.0368151      16.421189      5.1024721    
   1203000   0.9628089      16.791839      5.0681806    
   1204000   0.98684054     17.098215      5.0612533    
   1205000   0.98808167     16.714211      5.0807913    
   1206000   0.94464304     16.692991      5.0997895    
   1207000   1.0288359      16.915545      5.1240569    
   1208000   0.97880831     16.498797      5.1104204    
   1209000   1.0161246      16.58571       5.0922892    
   1210000   1.0030946      16.712345      5.1232845    
   1211000   0.96767071     16.906072      5.0710047    
   1212000   0.97028392     16.4165        5.0764945    
   1213000   0.98185525     16.629162      5.0953497    
   1214000   1.0277799      16.702866      5.0797464    
   1215000   1.0071241      17.204418      5.0472696    
   1216000   1.0477604      16.671393      5.0567876    
   1217000   1.0012369      17.051763      5.0666573    
   1218000   1.0391326      17.102919      5.0835895    
   1219000   0.99819764     16.974609      5.0615964    
   1220000   0.99219055     16.762194      5.0942943    
   1221000   1.0543664      17.100606      5.0438589    
   1222000   1.006091       17.035294      5.0786187    
   1223000   1.0204459      17.252931      5.0620316    
   1224000   0.9924318      16.973469      5.0341815    
   1225000   0.95804167     16.129843      5.0798485    
   1226000   1.0077602      17.103993      5.0425959    
   1227000   0.98807363     16.789207      5.0865097    
   1228000   1.0051607      17.373383      5.0755531    
   1229000   1.0617736      17.507207      5.0685513    
   1230000   0.98081594     16.859826      5.1381751    
   1231000   1.009871       16.422672      5.1336335    
   1232000   0.97749664     16.821671      5.1059538    
   1233000   0.9797078      16.152761      5.1081605    
   1234000   1.00253        16.623071      5.0924046    
   1235000   0.98074218     16.514004      5.0747291    
   1236000   0.97983199     16.675958      5.0819359    
   1237000   1.0362751      17.000771      5.0297855    
   1238000   1.0365267      17.19715       5.0602024    
   1239000   1.0203294      16.896598      5.0704144    
   1240000   0.96315819     16.791768      5.066258     
   1241000   0.96654056     17.217807      5.0859849    
   1242000   1.0098991      17.07452       5.0726302    
   1243000   1.0269476      16.338786      5.1233351    
   1244000   1.0118509      16.942925      5.0863441    
   1245000   0.97933318     17.223383      5.1034881    
   1246000   0.98467514     16.696176      5.1232945    
   1247000   1.0074257      17.467026      5.111088     
   1248000   1.0047359      16.673863      5.1070123    
   1249000   1.0790181      17.276885      5.1052777    
   1250000   0.98467035     17.028466      5.0837165    
   1251000   0.94887249     16.969451      5.0850515    
   1252000   1.0111621      16.973907      5.0708245    
   1253000   0.99026801     16.282765      5.0738817    
   1254000   0.99409926     16.726445      5.0578103    
   1255000   0.98388121     16.729771      5.0361997    
   1256000   1.0189524      16.423144      5.1008793    
   1257000   1.021604       17.255738      5.054501     
   1258000   1.0002868      16.474526      5.0988803    
   1259000   1.0231779      16.637601      5.0954066    
   1260000   1.015          16.39623       5.0660245    
   1261000   0.99475724     16.879199      5.085917     
   1262000   0.97148498     16.737295      5.0953277    
   1263000   1.0044034      16.44039       5.1030022    
   1264000   1.0045267      16.208327      5.0788246    
   1265000   1.0300371      16.617485      5.0824097    
   1266000   1.0174598      16.518585      5.0755484    
[...]
   4790000   1.0127067      16.760622      5.0808239    
   4791000   1.0161627      16.91196       5.0706307    
   4792000   0.98635577     16.906749      5.0688551    
   4793000   1.0212871      16.332495      5.0999668    
   4794000   1.0475757      16.318091      5.1051294    
   4795000   0.997532       16.394504      5.0987745    
   4796000   0.97141509     16.468948      5.1058414    
   4797000   0.98660418     16.882801      5.0769285    
   4798000   1.0183034      17.100126      5.0386689    
   4799000   0.99548169     16.776572      5.0914089    
   4800000   0.99085896     17.191546      5.1033221    
   4801000   0.96635037     16.325246      5.0611273    
   4802000   0.99000651     16.525355      5.0605902    
   4803000   0.96485193     16.841688      5.094222     
   4804000   0.99968183     16.852698      5.1140424    
   4805000   1.0297571      16.264303      5.0851145    
   4806000   0.96424847     16.628128      5.091745     
   4807000   1.0326597      16.647631      5.103986     
   4808000   1.0060328      16.941538      5.0265512    
   4809000   0.9622193      16.615804      5.07315      
   4810000   0.97771326     16.317675      5.0696239    
   4811000   1.0073991      16.666938      5.082102     
   4812000   1.0077016      16.972738      5.079523     
   4813000   1.0005626      17.153782      5.0972704    
   4814000   1.004831       16.530856      5.1133496    
   4815000   1.0193066      16.628273      5.0929201    
   4816000   0.99991099     16.429985      5.0486876    
   4817000   1.0002934      16.920137      5.1015555    
   4818000   0.97121564     16.670413      5.0775022    
   4819000   0.97554311     16.747187      5.0548617    
   4820000   0.98602123     16.910188      5.1053502    
   4821000   1.0058829      17.31815       5.1068142    
   4822000   1.0304654      16.423452      5.0773107    
   4823000   1.0150081      16.583378      5.0556587    
   4824000   0.95417563     17.072056      5.0490691    
   4825000   1.0173639      16.726081      5.0786176    
   4826000   0.96787974     16.505894      5.0770632    
   4827000   0.99646737     17.167892      5.0462363    
   4828000   1.0149125      16.497182      5.0290384    
   4829000   0.96493229     16.894562      5.0510656    
   4830000   0.97925927     16.389041      5.0315608    
   4831000   0.97593406     16.760994      5.0720569    
   4832000   0.95711779     16.62625       5.0769225    
   4833000   0.97913821     16.269389      5.078312     
   4834000   1.0101511      16.557308      5.0580897    
   4835000   1.0057797      16.959989      5.0871331    
   4836000   1.02897        16.600152      5.0635363    
   4837000   0.96377022     16.932121      5.1034055    
   4838000   1.0223193      16.947294      5.1056602    
   4839000   1.0938714      16.839735      5.0780312    
   4840000   0.97476057     16.341479      5.1060233    
   4841000   0.99444096     17.003546      5.0827861    
   4842000   0.99246201     16.756593      5.1318195    
   4843000   0.99473741     16.138836      5.1117629    
   4844000   1.0052528      16.730006      5.0824209    
   4845000   1.0097502      16.895629      5.0662444    
   4846000   0.98644097     16.639091      5.0804806    
   4847000   0.96778602     16.811767      5.0869314    
   4848000   1.0346842      16.855593      5.0785576    
   4849000   1.0078817      16.736463      5.0713008    
   4850000   0.98980981     16.537437      5.1076441    
   4851000   1.0105192      16.687266      5.0443292    
   4852000   0.97290447     16.264928      5.107021     
   4853000   1.0346523      16.661956      5.0726329    
   4854000   1.0101447      17.041267      5.0711481    
   4855000   1.00441        16.518961      5.0794209    
   4856000   1.0148293      17.153718      5.04302      
   4857000   0.93616964     16.528656      5.0725654    
   4858000   0.97258262     16.226248      5.0526474    
   4859000   1.0351386      16.511248      5.0652727    
   4860000   1.0002296      17.052035      5.0727612    
   4861000   0.98789973     16.824214      5.0698986    
   4862000   0.99843457     17.08801       5.045749     
   4863000   0.99160704     16.984177      5.0514441    
   4864000   1.0350107      16.77394       5.0845076    
   4865000   1.0032457      17.090652      5.07704      
   4866000   0.94058719     17.471265      5.0715916    
   4867000   0.9686792      16.781666      5.0693773    
   4868000   1.004017       16.834287      5.1005199    
   4869000   1.0709973      16.977059      5.0759872    
   4870000   1.0128158      16.740016      5.0785648    
   4871000   1.000949       16.857834      5.0615339    
   4872000   0.98491984     16.831258      5.070108     
   4873000   1.0200137      16.746978      5.0816005    
   4874000   1.0209441      16.784075      5.0634737    
   4875000   1.0213137      16.494053      5.1087609    
   4876000   0.99187319     16.225418      5.0813494    
   4877000   0.94405462     16.167048      5.0927057    
   4878000   1.059237       16.738374      5.0883437    
   4879000   1.0297043      16.33859       5.0681584    
   4880000   1.0332508      17.168617      5.0738426    
   4881000   0.98127955     17.228427      5.0544476    
   4882000   1.0459072      16.437137      5.0440069    
   4883000   1.0843237      16.69474       5.082409     
   4884000   0.96867963     16.321149      5.100112     
   4885000   1.0144427      16.777963      5.079393     
   4886000   0.99076422     16.964999      5.0943166    
   4887000   0.97894263     16.858461      5.0751514    
   4888000   1.0303944      16.273537      5.1075429    
   4889000   1.0449723      16.52064       5.1062353    
   4890000   1.0065278      16.462427      5.0737976    
   4891000   0.99888603     16.284205      5.0907064    
   4892000   1.0373294      16.878899      5.0517208    
   4893000   1.0577329      16.90757       5.060526     
   4894000   0.93819291     16.624131      5.0936082    
   4895000   1.0107317      16.260797      5.1083199    
   4896000   1.0067797      16.653341      5.0968535    
   4897000   1.0044425      16.661192      5.0613713    
   4898000   0.98999468     16.66703       5.0356954    
   4899000   1.0271772      16.361919      5.0617073    
   4900000   1.0318767      16.73186       5.0454757    
   4901000   0.97473593     17.334842      5.0426745    
   4902000   1.0090005      17.24544       5.0544734    
   4903000   1.016826       16.718061      5.0586222    
   4904000   1.0407516      16.994122      5.0457552    
   4905000   0.95264792     17.287627      5.0689406    
   4906000   0.97208824     17.176947      5.0613696    
   4907000   1.0258214      16.803521      5.1335041    
   4908000   0.98007773     16.960539      5.0722821    
   4909000   0.96071622     16.177513      5.0976239    
   4910000   1.0175993      16.988848      5.0637126    
   4911000   1.0134403      16.282749      5.1012018    
   4912000   0.94611945     16.716852      5.0583649    
   4913000   0.97483338     16.640255      5.0761007    
   4914000   0.97964961     16.987175      5.0961566    
   4915000   1.0146361      16.562675      5.105467     
   4916000   0.95985006     16.64584       5.0659663    
   4917000   0.97960604     16.52246       5.0958044    
   4918000   1.0104939      16.621364      5.0805077    
   4919000   0.98514225     16.902481      5.1037187    
   4920000   1.0602427      17.155874      5.1245135    
   4921000   0.98803575     15.972025      5.0845228    
   4922000   1.0139961      16.4571        5.0800131    
   4923000   1.0180939      16.558825      5.0773979    
   4924000   0.99803571     16.894626      5.0794084    
   4925000   0.96988551     16.994159      5.0816467    
   4926000   0.96993395     16.73206       5.074443     
   4927000   1.0240394      16.539545      5.0989348    
   4928000   0.99051552     16.406649      5.094665     
   4929000   0.9936545      16.83353       5.104602     
   4930000   1.0149681      16.373168      5.0726622    
   4931000   0.97598286     16.157853      5.0619881    
   4932000   0.93250655     16.590424      5.0788219    
   4933000   1.0178868      17.238861      5.0646775    
   4934000   1.0531282      16.365535      5.0717429    
   4935000   1.0109502      16.420261      5.0744279    
   4936000   1.0548934      16.578606      5.0694352    
   4937000   1.0237892      16.219083      5.0931316    
   4938000   1.0332095      17.070193      5.0741206    
   4939000   1.0148336      16.742821      5.0451084    
   4940000   1.0060109      17.037845      5.067094     
   4941000   0.99547951     16.876249      5.0870972    
   4942000   0.9691825      17.520817      5.0566902    
   4943000   1.0087676      16.319029      5.0952469    
   4944000   1.0248947      17.079272      5.0799233    
   4945000   0.99319986     16.784083      5.0759138    
   4946000   1.0236455      16.736184      5.0823806    
   4947000   0.99400944     16.561278      5.1072925    
   4948000   0.99974928     16.900741      5.0864614    
   4949000   0.96928185     16.871833      5.0412765    
   4950000   1.0090758      17.177777      5.1021083    
   4951000   1.0019607      17.013984      5.0981341    
   4952000   0.99695657     16.768293      5.0706484    
   4953000   0.98788832     16.855202      5.1031906    
   4954000   1.050407       16.6582        5.0635361    
   4955000   1.028197       17.080139      5.0794621    
   4956000   0.97513639     16.5247        5.0874378    
   4957000   1.0351272      17.160001      5.0702955    
   4958000   1.0128837      16.780533      5.0934866    
   4959000   1.0122437      17.260363      5.1107557    
   4960000   1.0020614      17.018229      5.10178      
   4961000   0.99141717     17.400838      5.0877625    
   4962000   1.0063836      16.984265      5.1369151    
   4963000   0.99251352     16.907953      5.0755987    
   4964000   1.009942       16.856117      5.1008896    
   4965000   0.99264647     16.333825      5.0740832    
   4966000   0.96535794     16.741942      5.0499573    
   4967000   0.99400911     17.315797      5.0973925    
   4968000   1.010761       16.259085      5.0887028    
   4969000   1.0261507      16.956137      5.0896556    
   4970000   1.009722       16.661563      5.0839533    
   4971000   0.97242811     17.387654      5.0843584    
   4972000   1.0196907      16.544541      5.0962125    
   4973000   1.0050351      16.172056      5.0879883    
   4974000   1.0069382      16.28699       5.0670853    
   4975000   0.97330856     16.557745      5.0488403    
   4976000   0.99045762     16.967446      5.0991145    
   4977000   1.0155362      16.135156      5.0528575    
   4978000   1.0172463      16.899051      5.0678854    
   4979000   0.97981409     17.221035      5.0734614    
   4980000   1.0073545      16.695448      5.0870215    
   4981000   0.99899141     16.947717      5.0461112    
   4982000   0.98208336     15.951623      5.0617637    
   4983000   1.003313       16.637494      5.0874423    
   4984000   0.97180074     16.361015      5.0860997    
   4985000   0.99515053     16.488958      5.0767017    
   4986000   1.0217045      16.439963      5.0521681    
   4987000   0.96408505     16.593837      5.113546     
   4988000   1.0163708      16.271217      5.088865     
   4989000   1.0071439      17.02838       5.0960287    
   4990000   1.0187325      17.125841      5.0599557    
   4991000   0.97481326     16.89403       5.0403344    
   4992000   0.96541544     16.212069      5.0959436    
   4993000   1.0102763      16.751905      5.0607213    
   4994000   1.0366141      17.445535      5.0527008    
   4995000   1.0098752      16.277887      5.0626378    
   4996000   1.0345327      16.639708      5.0407085    
   4997000   0.97296237     17.141564      5.0637341    
   4998000   0.99430098     16.617712      5.0586694    
   4999000   1.0172105      16.961351      5.0799996    
   5000000   1.0268356      16.572339      5.0894096    
   5001000   1.0088115      16.829728      5.0554679    
   5002000   0.96718157     16.618807      5.1025858    
   5003000   0.9707889      16.591231      5.0802884    
   5004000   1.0069579      16.095963      5.1036137    
   5005000   1.031771       16.805555      5.0843262    
   5006000   1.0486472      16.40961       5.1055918    
   5007000   1.0322099      16.934604      5.057843     
   5008000   0.99989817     16.950599      5.0451016    
   5009000   1.0024876      16.631807      5.0644629    
   5010000   0.98357156     16.980433      5.0577355    
   5011000   1.0400228      16.316556      5.0865844    
   5012000   1.0300801      16.644899      5.0666281    
   5013000   0.98207034     16.593715      5.0590014    
   5014000   1.0082289      16.702756      5.0858765    
   5015000   1.0163516      17.440543      5.0743721    
   5016000   1.005463       16.705376      5.1084871    
   5017000   0.96171736     16.80263       5.0922712    
   5018000   0.96287546     16.571413      5.1016323    
   5019000   1.0311784      17.069163      5.0836232    
   5020000   1.0120412      17.33848       5.1012678    
   5021000   1.0141327      15.911607      5.1484699    
   5022000   1.0176921      17.053107      5.1443104    
   5023000   1.0419713      16.641743      5.103618     
   5024000   1.0043657      16.814052      5.0884648    
   5025000   1.0034246      16.798118      5.0935554    
   5026000   1.0178782      17.292966      5.1010124    
   5027000   1.060122       17.234029      5.123312     
   5028000   1.0625372      17.053837      5.1368705    
   5029000   0.99114437     17.007887      5.0613078    
   5030000   0.98780355     16.820773      5.0834775    
   5031000   0.97938405     16.438199      5.0903634    
   5032000   0.99950321     16.745889      5.0812382    
   5033000   0.97610576     16.890233      5.0322223    
   5034000   0.98953092     16.760812      5.0834489    
   5035000   1.004704       16.608282      5.0729728    
   5036000   1.0223971      16.70775       5.0909559    
   5037000   0.99498614     17.298373      5.0899193    
   5038000   0.96272091     16.749515      5.1017916    
   5039000   1.0086924      16.919293      5.0608148    
   5040000   0.98201933     17.069138      5.1053339    
   5041000   1.0102527      16.950089      5.0645877    
   5042000   1.0031035      16.254173      5.0649264    
   5043000   0.97701722     16.300693      5.0646852    
   5044000   1.034686       16.851918      5.0532455    
   5045000   0.9867997      16.298351      5.0866807    
   5046000   1.0007387      16.479957      5.094988     
   5047000   0.97587807     16.547754      5.0609338    
   5048000   1.0428122      16.971159      5.0717119    
   5049000   0.97529638     16.998422      5.0792483    
   5050000   1.0309326      16.314743      5.1033032    
   5051000   1.0101211      16.773783      5.0608336    
   5052000   1.013015       15.835896      5.0930392    
   5053000   0.9882038      16.684092      5.0848871    
   5054000   1.0324467      16.600006      5.0659472    
   5055000   0.95159793     16.785071      5.0463152    
   5056000   1.043554       17.068627      5.093252     
   5057000   1.0265228      17.171318      5.049139     
   5058000   0.990892       16.014265      5.0865984    
   5059000   0.97085823     16.949368      5.0662799    
   5060000   1.0033838      16.947823      5.0854137    
   5061000   1.006825       16.979824      5.1098531    
   5062000   0.96317333     17.165116      5.0737187    
   5063000   1.0351687      16.98614       5.0805555    
   5064000   1.0118323      17.080702      5.1032539    
   5065000   1.0063779      16.137359      5.1034224    
   5066000   1.0284549      16.587303      5.0670707    
   5067000   0.95041602     16.812245      5.078522     
   5068000   1.0111953      17.117755      5.0875893    
   5069000   1.0326438      17.023118      5.0629779    
   5070000   1.0400077      17.05282       5.0508701    
   5071000   1.0314559      16.813784      5.0803986    
   5072000   1.0019483      16.204868      5.1066645    
   5073000   1.0244412      16.787907      5.0781335    
   5074000   0.98251232     16.493743      5.0612102    
   5075000   1.0339455      16.246872      5.0804245    
   5076000   1.0024041      16.607172      5.0651095    
   5077000   1.0114255      16.735449      5.0720882    
   5078000   0.99166065     16.349614      5.0743861    
   5079000   0.9860201      16.279736      5.0600353    
   5080000   1.0175971      16.525822      5.0551278    
   5081000   0.99741846     17.125002      5.106906     
   5082000   0.9880835      16.72941       5.0897825    
   5083000   1.0195458      16.625307      5.1159698    
   5084000   1.0139636      16.347389      5.1118041    
   5085000   1.0011824      16.964776      5.0702705    
   5086000   0.97656662     16.344812      5.0714835    
   5087000   0.94788231     16.439063      5.0533885    
   5088000   0.99155902     16.456264      5.0693633    
   5089000   0.98894052     17.285801      5.1021917    
   5090000   0.95943845     15.866871      5.1051512    
   5091000   0.95745951     17.064756      5.0421336    
   5092000   1.0246037      16.415585      5.0629281    
   5093000   0.99976951     16.84227       5.0679994    
   5094000   0.98307098     16.830753      5.0926358    
   5095000   0.99415194     17.070149      5.0611442    
   5096000   1.0075332      17.247449      5.102986     
   5097000   1.030181       16.836751      5.0774282    
   5098000   0.99872632     16.875541      5.0769772    
   5099000   0.99215323     16.854478      5.0607102    
   5100000   1.0241266      17.300339      5.0313223    
Loop time of 10334.2 on 1 procs for 5000000 steps with 1001 atoms

Performance: 418030.932 tau/day, 483.832 timesteps/s
100.0% CPU use with 1 MPI tasks x 1 OpenMP threads

MPI task timing breakdown:
Section |  min time  |  avg time  |  max time  |%varavg| %total
---------------------------------------------------------------
Pair    | 5968.1     | 5968.1     | 5968.1     |   0.0 | 57.75
Bond    | 228.01     | 228.01     | 228.01     |   0.0 |  2.21
Neigh   | 3847.6     | 3847.6     | 3847.6     |   0.0 | 37.23
Comm    | 2.549      | 2.549      | 2.549      |   0.0 |  0.02
Output  | 13.047     | 13.047     | 13.047     |   0.0 |  0.13
Modify  | 245.37     | 245.37     | 245.37     |   0.0 |  2.37
Other   |            | 29.57      |            |       |  0.29

Nlocal:           1001 ave        1001 max        1001 min
Histogram: 1 0 0 0 0 0 0 0 0 0
Nghost:              0 ave           0 max           0 min
Histogram: 1 0 0 0 0 0 0 0 0 0
Neighs:         271570 ave      271570 max      271570 min
Histogram: 1 0 0 0 0 0 0 0 0 0

Total # of neighbors = 271570
Ave neighs/atom = 271.2987
Ave special neighs/atom = 1.998002
Neighbor list builds = 33645
Dangerous builds = 0

# This simulation is done
# Move onto the next one
clear
OMP_NUM_THREADS environment is not set. Defaulting to 1 thread. (src/comm.cpp:98)
  using 1 OpenMP thread(s) per MPI task
next f
jump SELF

###
# Reference paper:
# K. Kremer and G. S. Grest
# Dynamics of entangled linear polymer melts: A molecular-dynamics simulation
# J Chem Phys 92, 5057 (1990)

##################################
# MIHIR: for branched polymers
# LJ minimum first to expand and explore, then collapse
###

###
# Looping through the various plusshaped polymers to simulate,
# define variables to switch through
variable f index bb51nuc1bl25bn4d30tot100 bb101nuc1bl50bn4d30tot200 bb151nuc1bl75bn4d30tot300 bb201nuc1bl100bn4d30tot400 bb251nuc1bl125bn4d30tot500 bb301nuc1bl150bn4d30tot600 bb351nuc1bl175bn4d30tot700 bb401nuc1bl200bn4d30tot800 bb451nuc1bl225bn4d30tot900 bb501nuc1bl250bn4d30tot1000 bb551nuc1bl275bn4d30tot1100 bb601nuc1bl300bn4d30tot1200
###


###
# Box and units  (use LJ units and periodic boundaries)
###

units lj
log plusshaped/logs/$f.log
log plusshaped/logs/bb551nuc1bl275bn4d30tot1100.log
