#atom_style bond #no stiffness
atom_style angle #with stiffness

boundary        p p p
###
# Pair interactions require lists of neighbours to be calculated
###

#neighbor 0.3 bin
neighbor 4 bin

neigh_modify every 1 delay 1 check yes
atom_modify sort 0 0
### Generate RESTART file, SPECIAL format, not a .txt file ###
### Useful if simulation crashes ###

restart 1000000 plusshaped/restarts/$f.restart
restart 1000000 plusshaped/restarts/bb601nuc1bl300bn4d30tot1200.restart
#############################



### READ "start" data file ###

read_data plusshaped/$f.dat
read_data plusshaped/bb601nuc1bl300bn4d30tot1200.dat
Reading data file ...
  orthogonal box = (-1000 -1000 -1000) to (1000 1000 1000)
  1 by 1 by 1 MPI processor grid
  reading atoms ...
  1201 atoms
  scanning bonds ...
  3 = max bonds/atom
  scanning angles ...
  6 = max angles/atom
  reading bonds ...
  1200 bonds
  reading angles ...
  1202 angles
Finding 1-2 1-3 1-4 neighbors ...
  special bond factors lj:    0        0        0       
  special bond factors coul:  0        0        0       
     4 = max # of 1-2 neighbors
     4 = max # of 1-3 neighbors
     8 = max # of 1-4 neighbors
    12 = max # of special neighbors
  special bonds CPU = 0.001 seconds
  read_data CPU = 0.076 seconds

######################

### READ "REstart" data file ###

######################



###
# Define groups (atom type 1 is group 'all')
###
group all type 1
1201 atoms in group all


###
# Dump configs - "simple dumpings"
###

###
# Dump configs + box coords
###

dump   1   all   custom   1000  plusshaped/trjs/$f.lammpstrj  id  x y z  ix iy iz
dump   1   all   custom   1000  plusshaped/trjs/bb601nuc1bl300bn4d30tot1200.lammpstrj  id  x y z  ix iy iz
dump_modify   1   format line "%d %.5f %.5f %.5f %d %d %d"

########################################################################


###################################################################
# Stiffness term
#
# E = K * (1+cos(theta)), K>0
#
angle_style   cosine
#change this coefficient to change stiffness (e.g. 1,5,10)
angle_coeff   1 1.0
###################################################################

###################################################################
# Pair interaction between non-bonded atoms
#
#  Lennard-Jones 12-6 potential with cutoff:
#  potential E=4epsilon[ (sigma/r)^12 - (sigma/r)^6]  for r<r_cut
#
#  1.12246 = 2^(1/6) is the minimum of the potential


pair_style      lj/cut 1.12246152962189
#pair_style      lj/cut 3

#
#  pair_modify shift yes adds a constant to the potential such

#  that E(r_cut)=0. Forces remains unchanged.
#

pair_modify     shift yes

#
#  pair_coeff for lj/cut, specify 4:
#    * atom type interacting with
#    * atom type
#    * epsilon (energy units)
#    * sigma (distance units)
#

pair_coeff      1 1 1.0 1.0
###################################################################

###################################################################
# Pair interaction between non-bonded atoms
#
#  soft potential, for PUSHING apart overlapping atoms
#  potential E=A*(1 + cos(pi*r/r_c))
#
#  1.12246 = 2^(1/6) is the cut-off r_c

#pair_style     soft 1.12246152962189

#
#  pair_coeff for soft, specify 3:
#    * atom type interacting with
#    * atom type
#    * A
#
#

#pair_coeff      1 1 100.0
###################################################################

###################################################################
# Pair interaction between bonded atoms
#
# Fene potential + Lennard Jones 12-6:

#
#  E= - 0.5 K R0^2 ln[ 1- (r/R0)^2]
#     + 4epsilon[ (sigma/r)^12 - (sigma/r)^6] + epsilon
#

bond_style   fene


#
# For style fene, specify:
#   * bond type
#   * K (energy/distance^2)
#   * R0 (distance)
#   * epsilon (energy)  (LJ component)
#   * sigma (distance)  (LJ component)
#


special_bonds fene #<=== I M P O R T A N T (new command)
Finding 1-2 1-3 1-4 neighbors ...
  special bond factors lj:    0        1        1       
  special bond factors coul:  0        1        1       
     4 = max # of 1-2 neighbors
    12 = max # of special neighbors
  special bonds CPU = 0.000 seconds

bond_coeff   1   30   2   1.0   1.0


###################################################

###################################################################
# Pair interaction between bonded atoms
#
# Harmonic potential:
#
#  E= K * (R-R0)^2
#

#bond_style   harmonic

#
# For style harmonic, specify:
#   * bond type
#   * K (energy/distance^2)
#   * R0 (distance)
#

#bond_coeff   1   60.0   1.0
#bond_coeff   2   harmonic 0.1   1.0

###################################################
compute 1 all gyration
variable rog equal c_1
#compute 2 all coord/atom cutoff 1.1

#dump 2 all custom 10000 contact_number.dump id c_2


###
# Set up fixes
###
thermo_style   custom   step  temp enthalpy c_1
fix 1 all nve   ###NVE ensemble

fix 2 all   langevin   1.0 1.0 1.0  100103   ###Langevin integrator Tstart Tstop 1/friction rndseed


##### Sample thermodynamic info  (temperature, energy, pressure, etc.) #####
thermo 1000









############################################################################

###
# set timestep of integrator

timestep 0.01

###
# run integration for a number of steps
###
#run 0
#variable r equal c_1
#if "$r < 63.1" then "quit 1"

# lj potential minimum, cause molecule to explore
run 100000
Generated 0 of 0 mixed pair_coeff terms from geometric mixing rule
Neighbor list info ...
  update: every = 1 steps, delay = 1 steps, check = yes
  max neighbors/atom: 2000, page size: 100000
  master list distance cutoff = 5.1224615
  ghost atom cutoff = 5.1224615
  binsize = 2.5612308, bins = 781 781 781
  1 neighbor lists, perpetual/occasional/extra = 1 0 0
  (1) pair lj/cut, perpetual
      attributes: half, newton on
      pair build: half/bin/newton
      stencil: half/bin/3d
      bin: standard
WARNING: Communication cutoff 5.12246152962189 is shorter than a bond length based estimate of 5.455. This may lead to errors. (src/comm.cpp:723)
Per MPI rank memory allocation (min/avg/max) = 1861 | 1861 | 1861 Mbytes
   Step          Temp         Enthalpy         c_1      
         0   0              13.192671      157.58589    
      1000   1.0046661      17.456215      156.98584    
      2000   0.94250669     17.676657      156.41673    
      3000   0.9805081      18.031865      155.82909    
      4000   1.0005032      17.901438      155.20503    
      5000   0.96214835     17.804971      154.76734    
      6000   1.0012926      18.282959      154.36105    
      7000   1.0081706      18.070675      154.1672     
      8000   1.0234509      17.74872       153.79998    
      9000   1.0163034      18.565416      153.04023    
     10000   1.001467       18.510556      152.49391    
     11000   0.9575255      18.313944      152.2594     
     12000   1.0064091      18.518381      152.0081     
     13000   1.050445       18.591679      151.42852    
     14000   1.0257157      18.360678      151.10886    
     15000   1.0089318      18.542285      150.76687    
     16000   1.0161325      18.694235      150.56231    
     17000   0.99565004     18.993996      150.35909    
     18000   1.0003674      18.449909      150.11902    
     19000   1.026274       18.662902      149.91565    
     20000   1.0172386      19.016437      149.77947    
     21000   0.9722154      18.462936      149.46018    
     22000   1.0494994      19.121786      148.81113    
     23000   0.95897457     18.720442      148.61634    
     24000   0.9968789      18.386998      148.28189    
     25000   1.0034689      19.056514      147.95891    
     26000   1.0367907      18.803416      147.83063    
     27000   1.0135819      19.038181      147.49429    
     28000   1.0309728      19.047994      147.1426     
     29000   1.0235521      18.618709      146.95118    
     30000   1.0312602      18.760637      146.73785    
     31000   0.97926241     18.4144        146.55366    
     32000   0.99458636     18.680631      146.33569    
     33000   1.0120288      19.216522      146.09167    
     34000   1.0121619      19.313374      145.74252    
     35000   0.99497763     18.899159      145.42607    
     36000   1.0369202      19.158064      145.18717    
     37000   1.0338797      19.20981       145.12793    
     38000   0.99562392     18.899712      144.661      
     39000   1.0955323      19.281979      144.39065    
     40000   1.01096        19.328254      144.08499    
     41000   1.0577472      19.179983      143.94516    
     42000   1.0355359      19.135147      143.68708    
     43000   1.0251783      19.626793      143.39806    
     44000   1.0071898      19.506261      143.18732    
     45000   1.0340673      19.251878      143.08597    
     46000   1.0131148      19.266015      142.80441    
     47000   0.97638137     19.498447      142.49374    
     48000   1.0079818      19.493997      142.32695    
     49000   1.0139501      19.337819      142.00777    
     50000   1.030618       19.583633      141.97845    
     51000   1.0082489      19.04316       141.71337    
     52000   0.99491949     19.507136      141.53833    
     53000   0.99993071     19.338244      141.22063    
     54000   0.98673756     19.422484      140.67666    
     55000   1.0228153      19.682315      140.34183    
     56000   1.037318       19.829958      140.28197    
     57000   0.98771186     19.425228      140.38483    
     58000   1.0121518      19.357632      140.30349    
     59000   0.99001816     19.530098      139.92763    
     60000   1.0136496      19.787874      139.66571    
     61000   0.99339039     19.493435      139.47335    
     62000   0.98650657     19.376898      139.12557    
     63000   1.0311776      19.593822      139.01601    
     64000   1.0259677      19.379252      138.77819    
     65000   0.98189975     19.279888      138.53371    
     66000   1.0147525      19.903739      138.53187    
     67000   0.97436546     19.314848      138.27272    
     68000   1.0144612      19.558754      138.17568    
     69000   0.97466684     19.436881      138.04316    
     70000   1.0108264      20.003767      137.88314    
     71000   0.98724609     19.901799      137.72107    
     72000   1.0152194      19.708887      137.44295    
     73000   0.96290732     19.666444      137.09871    
     74000   0.97632746     19.609647      136.82575    
     75000   0.98980124     19.470802      136.61083    
     76000   0.99144208     19.978936      136.33576    
     77000   1.009416       19.446699      136.33683    
     78000   0.98790759     19.184045      136.22579    
     79000   1.0389373      19.617213      136.1915     
     80000   0.98116021     19.936015      135.89568    
     81000   1.0099608      19.629751      135.63711    
     82000   1.0417403      19.71264       135.36811    
     83000   1.009588       19.363064      135.28646    
     84000   0.97410684     19.590046      135.03023    
     85000   1.0324171      19.508143      134.86247    
     86000   0.979775       19.751582      134.63522    
     87000   1.0114209      19.147391      134.6338     
     88000   0.97026453     19.320845      134.41436    
     89000   1.0207738      19.817964      134.22847    
     90000   1.0218099      19.779959      134.05695    
     91000   0.96344939     19.299042      133.89487    
     92000   1.0371868      19.661261      133.63236    
     93000   0.9924987      19.343931      133.48548    
     94000   0.98248693     19.580884      133.35286    
     95000   1.0130822      19.706152      133.12389    
     96000   1.031162       19.770036      132.7811     
     97000   1.0197435      19.396897      132.5939     
     98000   0.98341612     19.385986      132.4701     
     99000   0.99554661     19.91189       132.26947    
    100000   1.0192429      19.621948      132.23249    
Loop time of 216.493 on 1 procs for 100000 steps with 1201 atoms

Performance: 399089.942 tau/day, 461.910 timesteps/s
100.0% CPU use with 1 MPI tasks x 1 OpenMP threads

MPI task timing breakdown:
Section |  min time  |  avg time  |  max time  |%varavg| %total
---------------------------------------------------------------
Pair    | 1.864      | 1.864      | 1.864      |   0.0 |  0.86
Bond    | 4.4598     | 4.4598     | 4.4598     |   0.0 |  2.06
Neigh   | 204.68     | 204.68     | 204.68     |   0.0 | 94.54
Comm    | 0.031999   | 0.031999   | 0.031999   |   0.0 |  0.01
Output  | 0.25773    | 0.25773    | 0.25773    |   0.0 |  0.12
Modify  | 4.8802     | 4.8802     | 4.8802     |   0.0 |  2.25
Other   |            | 0.3236     |            |       |  0.15

Nlocal:           1201 ave        1201 max        1201 min
Histogram: 1 0 0 0 0 0 0 0 0 0
Nghost:              0 ave           0 max           0 min
Histogram: 1 0 0 0 0 0 0 0 0 0
Neighs:           6537 ave        6537 max        6537 min
Histogram: 1 0 0 0 0 0 0 0 0 0

Total # of neighbors = 6537
Ave neighs/atom = 5.4429642
Ave special neighs/atom = 1.9983347
Neighbor list builds = 1115
Dangerous builds = 0

# Replace lj potential, now collapse
pair_style      lj/cut 3

# Cutoff simul when gyration under 5
# Variable created with equal requires v_ + 'name'
fix 3 all halt 1000 v_rog < 5

run 5000000
Generated 0 of 0 mixed pair_coeff terms from geometric mixing rule
Per MPI rank memory allocation (min/avg/max) = 1861 | 1861 | 1861 Mbytes
   Step          Temp         Enthalpy         c_1      
    100000   1.0192429      19.061581      132.23249    
    101000   1.0185916      19.832592      132.0159     
    102000   1.0293766      19.346837      131.66426    
    103000   1.0184097      19.084921      131.34597    
    104000   1.0333191      18.970327      131.06012    
    105000   1.0229327      19.311959      131.00512    
    106000   1.0362097      19.642463      130.8452     
    107000   0.97457778     19.469549      130.76572    
    108000   0.98885913     18.856788      130.51388    
    109000   1.0354657      19.534856      130.29362    
    110000   0.98534125     19.647254      130.17172    
    111000   1.0105107      19.316787      129.76134    
    112000   1.0042821      19.417574      129.42021    
    113000   0.98528976     18.909595      129.03672    
    114000   1.0538382      19.319395      128.8635     
    115000   0.95557214     19.127306      128.68183    
    116000   1.0447182      18.804162      128.63512    
    117000   1.0272723      19.06494       128.57883    
    118000   1.0265673      19.333973      128.20312    
    119000   1.0243246      19.153265      128.08649    
    120000   1.0399568      19.257148      128.01363    
    121000   0.97483187     19.306271      127.71297    
    122000   1.0243813      19.040723      127.66287    
    123000   1.0088395      19.15294       127.67425    
    124000   0.97049439     19.19819       127.62468    
    125000   1.0105276      19.075322      127.50321    
    126000   0.97296057     19.364347      127.4752     
    127000   0.96045395     19.100299      127.32518    
    128000   0.98539027     19.400829      126.85048    
    129000   0.97259893     19.322187      126.67992    
    130000   1.0073861      19.546143      126.49705    
    131000   1.0265747      19.059867      126.20969    
    132000   0.99686664     19.208493      126.34075    
    133000   0.99420215     19.161686      126.18307    
    134000   0.9644305      19.019047      126.06581    
    135000   0.99391888     19.259827      125.76881    
    136000   1.0336703      19.159272      125.68353    
    137000   1.0297458      18.484819      125.47701    
    138000   0.97757254     19.078498      125.17386    
    139000   0.98489576     18.968413      125.02765    
    140000   0.97861335     18.924951      124.82752    
    141000   1.0343239      18.938542      124.50716    
    142000   1.0183083      19.193779      124.42373    
    143000   1.0084103      19.133435      124.21612    
    144000   0.99309661     19.089359      124.18709    
    145000   0.98625498     19.146147      123.95696    
    146000   0.98513371     18.970114      123.85359    
    147000   1.0234816      19.265788      123.68635    
    148000   0.99854898     19.19686       123.48306    
    149000   1.0348321      19.142885      123.2745     
    150000   0.99943231     19.407253      123.09978    
    151000   1.0219583      19.173629      122.97403    
    152000   0.99845513     19.057302      122.73589    
    153000   0.99827706     18.99809       122.5687     
    154000   1.0205011      19.14665       122.45499    
    155000   0.96197878     18.746596      122.38271    
    156000   0.97391739     19.246087      122.24293    
    157000   0.98099016     18.817869      122.06049    
    158000   0.96494402     19.126156      121.82097    
    159000   0.98741411     18.994847      121.39203    
    160000   1.0071449      18.661391      121.29683    
    161000   0.9886586      18.838743      121.06984    
    162000   0.9939186      18.812904      120.94596    
    163000   0.98028532     19.375298      120.95576    
    164000   1.0193687      19.214538      120.96112    
    165000   1.000634       19.09638       120.8596     
    166000   1.0396792      19.392762      120.61034    
    167000   1.0423435      19.54172       120.42088    
    168000   0.96803741     18.746173      120.34287    
    169000   0.97176121     18.929091      120.24482    
    170000   1.0348788      19.281957      119.98376    
    171000   0.99542448     18.770206      119.81025    
    172000   0.98259621     18.820201      119.71704    
    173000   0.99569033     19.009625      119.23756    
    174000   1.0084598      19.155442      119.11062    
    175000   1.0137701      18.821396      118.99642    
    176000   0.99452399     19.418764      118.71957    
    177000   1.0285278      18.933371      118.39845    
    178000   1.0042818      19.165319      118.19563    
    179000   0.98883515     19.29866       118.10573    
    180000   1.0239168      19.163287      117.87546    
    181000   1.021856       18.717444      117.53224    
    182000   1.0140876      18.646376      117.38652    
    183000   1.0154643      19.11581       117.23311    
    184000   1.0039712      18.777358      117.13905    
    185000   0.98842811     19.187787      117.05786    
    186000   1.0239692      19.201034      116.79095    
    187000   1.0348261      18.970488      116.61036    
    188000   0.99737502     19.215596      116.23476    
    189000   1.0057486      18.765747      115.87186    
    190000   1.0022314      19.68062       115.69693    
    191000   0.99570411     18.977064      115.45332    
    192000   1.0184761      19.597865      115.14022    
    193000   0.98986568     19.287439      114.83978    
    194000   0.96299862     19.361116      114.77709    
    195000   0.99602495     19.380309      114.67329    
    196000   1.0327705      19.070472      114.54432    
    197000   0.99220656     19.6402        114.51311    
    198000   1.005243       18.834417      114.34365    
    199000   1.0403252      19.140244      114.33869    
    200000   1.040247       19.177464      114.27695    
    201000   0.99000871     19.231406      114.3259     
    202000   0.98686395     19.550062      114.10159    
    203000   1.0238584      18.923107      114.16052    
    204000   1.0192649      19.247133      114.02786    
    205000   0.96610446     18.955191      113.93492    
    206000   1.0013971      18.851529      113.91809    
    207000   1.0152974      19.423336      113.953      
    208000   1.0348466      19.339431      113.82339    
    209000   1.0054514      19.182311      113.49489    
    210000   0.99717803     19.121766      113.31623    
    211000   1.0318128      19.129081      113.24373    
    212000   0.97286594     19.182222      113.08284    
    213000   0.97321211     19.13779       112.85915    
    214000   0.9984633      19.097748      112.6564     
    215000   0.99172309     19.038733      112.28481    
    216000   1.0026592      18.574832      111.81951    
    217000   0.97905551     19.357944      111.74538    
    218000   1.002735       19.380284      111.73407    
    219000   0.9794942      19.131494      111.58218    
    220000   1.0476215      19.553336      111.34765    
    221000   1.0151644      18.799251      111.12266    
    222000   0.96222814     18.429635      110.95224    
    223000   1.0284666      18.791653      111.03459    
    224000   0.99845342     19.283929      110.8692     
    225000   1.0104724      19.415308      110.73717    
    226000   1.0057847      18.977658      110.51323    
    227000   1.0210102      18.874443      110.49016    
    228000   0.99406035     19.185891      110.36424    
    229000   0.97072012     19.285197      110.16435    
    230000   0.99990124     18.701795      109.95399    
    231000   1.0104822      18.788074      109.8199     
    232000   0.98527215     19.296993      109.7558     
    233000   0.99915413     19.069115      109.51825    
    234000   0.93885058     18.975577      109.55115    
    235000   0.98111575     19.100494      109.40492    
    236000   1.0354772      19.203162      109.2131     
    237000   0.97162624     18.847506      108.96552    
    238000   0.99792177     18.999186      108.85222    
    239000   1.0098208      18.793189      108.96322    
    240000   1.0504969      19.161344      108.81323    
    241000   0.97792318     18.804111      108.82352    
    242000   1.0125517      19.149457      108.54774    
    243000   1.0203496      18.689233      108.17428    
    244000   0.96372349     18.654309      108.24848    
    245000   1.0313893      18.757279      108.02965    
    246000   0.99949768     18.831762      107.85137    
    247000   1.0370458      18.756096      107.79067    
    248000   0.9688982      19.049727      107.91425    
    249000   0.98788819     18.789891      107.80268    
    250000   1.0229099      18.809146      107.65366    
    251000   0.98707303     18.699223      107.52847    
    252000   0.97128499     18.979917      107.32564    
    253000   0.99168172     18.75436       106.96845    
    254000   0.98142819     18.90784       106.69217    
    255000   1.0526847      18.628075      106.56746    
    256000   1.0309703      19.065982      106.38794    
    257000   1.01727        18.724282      106.20801    
    258000   1.0485428      18.966598      105.94971    
    259000   1.0400689      19.020531      106.041      
    260000   1.0178593      18.780967      105.88895    
    261000   0.99701823     18.922551      105.79705    
    262000   1.0015454      19.089781      105.6431     
    263000   1.0022864      18.730323      105.71429    
    264000   0.98643709     18.854397      105.52644    
    265000   1.0121392      18.818534      105.22502    
    266000   0.97628969     19.00278       105.00073    
    267000   0.97592319     19.079084      104.75161    
    268000   1.0353678      19.427583      104.44944    
    269000   1.0199738      19.260874      104.21167    
    270000   0.98585595     18.722541      103.9906     
    271000   1.0068163      18.987549      104.08419    
    272000   0.96950059     18.848125      103.98749    
    273000   1.0104505      18.377224      103.66763    
    274000   0.96495417     18.716657      103.27508    
    275000   0.99242651     18.92352       103.07375    
    276000   0.99254041     18.286286      103.04526    
    277000   0.97136444     18.88437       102.95777    
    278000   0.99222208     18.594098      102.66606    
    279000   1.0499724      19.176921      102.31066    
    280000   0.96658484     19.080923      102.03268    
    281000   0.99182421     18.498796      101.98323    
    282000   1.00841        18.688549      101.68692    
    283000   1.012488       18.879346      101.51051    
    284000   1.0051956      18.771715      101.44198    
    285000   0.98780726     18.411501      101.08481    
    286000   1.0090524      18.757301      101.00966    
    287000   0.96800374     19.165721      100.78715    
    288000   0.99414903     18.810623      100.72653    
    289000   1.0133058      19.115995      100.66225    
    290000   0.96278455     18.495888      100.6943     
    291000   0.98551092     18.594754      100.57719    
    292000   1.0183867      18.737644      100.41606    
    293000   0.98754337     18.606926      100.37381    
    294000   1.0338025      18.764307      100.44754    
    295000   0.99413823     18.82268       100.44052    
    296000   0.98604101     19.426907      100.33105    
    297000   1.0013936      19.054354      100.24662    
    298000   1.0293108      19.01016       100.20945    
    299000   1.008125       19.249652      100.1058     
    300000   0.9779894      18.448636      99.922621    
    301000   0.9896813      18.836585      99.682187    
    302000   0.97821591     18.815792      99.616051    
    303000   1.0054817      18.581749      99.297883    
    304000   0.98620832     18.24262       99.153797    
    305000   0.98287078     18.658172      99.057939    
    306000   1.0240543      18.961531      98.948817    
    307000   1.0225064      18.689539      99.032373    
    308000   1.0185884      19.11786       99.105081    
    309000   1.0300107      18.659044      98.837524    
    310000   1.0151494      19.091222      98.697546    
    311000   0.99194915     18.799543      98.553324    
    312000   0.98572305     18.700368      98.513411    
    313000   0.98323604     18.548742      98.344191    
    314000   1.0208749      19.027811      98.172722    
    315000   1.0081149      18.799234      97.934096    
    316000   1.0026914      18.687569      97.684358    
    317000   1.0103         18.841263      97.475134    
    318000   0.98547416     18.534907      97.254884    
    319000   1.0076377      18.978343      97.294806    
    320000   0.98816181     19.035492      97.249665    
    321000   0.98039128     18.857215      96.970916    
    322000   0.97057395     18.113211      96.77115     
    323000   1.0286275      18.20958       96.599375    
    324000   1.0556286      19.219997      96.474699    
    325000   1.0177821      18.718724      96.404379    
    326000   0.99423965     18.577415      96.397278    
    327000   1.0139734      19.138617      96.23389     
    328000   0.97844483     18.410196      96.184855    
    329000   1.0047159      18.727504      95.741786    
    330000   0.98930613     19.101773      95.474789    
    331000   0.95585284     18.813357      95.454415    
    332000   1.0016012      18.631372      94.971415    
    333000   1.0254314      19.215461      94.794838    
    334000   0.99154137     19.044019      94.595119    
    335000   1.0201233      18.739711      94.590799    
    336000   1.0101504      18.661552      94.390301    
    337000   1.0185474      18.979358      94.077035    
    338000   1.0137         18.984916      93.863931    
    339000   0.9905299      18.599376      93.550826    
    340000   0.97368685     18.706321      93.600235    
    341000   0.98313291     18.627886      93.559902    
    342000   0.99525957     18.648533      93.382529    
    343000   1.0150959      19.084854      93.432484    
    344000   0.99578569     18.602648      93.281497    
    345000   1.0194717      18.704586      93.203855    
    346000   1.0177955      18.643563      93.121936    
    347000   0.99413258     18.940265      92.921602    
    348000   1.0447475      18.643034      92.732568    
    349000   1.0271741      18.371186      92.655022    
    350000   1.0191191      18.540044      92.882206    
    351000   0.99050867     18.65401       92.726948    
    352000   0.99261998     18.483382      92.660714    
    353000   0.97075207     18.810302      92.519395    
    354000   1.0099935      18.072704      92.42598     
    355000   1.0379957      18.304502      92.262338    
    356000   1.0065575      18.825787      92.124156    
    357000   0.97574988     18.899213      91.983887    
    358000   0.97770292     18.843263      91.831828    
    359000   0.96853535     18.123811      91.494812    
    360000   1.0193019      18.9749        91.318292    
    361000   0.97335609     18.613953      91.142028    
    362000   0.9719656      19.056812      91.050087    
    363000   0.98480127     18.659051      90.906058    
    364000   1.0333854      18.757288      90.705006    
    365000   0.9684515      19.027577      90.843395    
    366000   0.99513548     18.319221      90.744933    
    367000   1.0186935      18.725291      90.689622    
    368000   1.0025481      18.792767      90.415552    
    369000   1.006807       18.505147      90.037007    
    370000   1.0057606      18.915128      90.092383    
    371000   0.97814393     18.147531      90.031504    
    372000   1.014984       18.72546       90.084307    
    373000   0.99297636     18.794811      89.778129    
    374000   1.0163315      18.684443      89.690645    
    375000   1.0068091      18.612339      89.519006    
    376000   0.99872924     18.353813      89.428134    
    377000   0.99424752     18.592919      88.97543     
    378000   0.97235013     18.354886      88.761114    
    379000   1.0051369      18.822869      88.47581     
    380000   0.98322732     18.683366      88.285106    
    381000   1.0157539      18.796274      88.148257    
    382000   0.99363673     18.496621      88.040211    
    383000   1.0223775      18.436203      87.966982    
    384000   0.96614216     18.320818      87.730539    
    385000   1.0100728      18.08145       87.385795    
    386000   1.0024106      18.578487      87.331505    
    387000   1.0048857      18.549358      87.011332    
    388000   0.99654926     18.203065      86.722467    
    389000   1.0139963      18.712682      86.719113    
    390000   1.0050324      18.725594      86.585988    
    391000   0.9959274      18.241781      86.502834    
    392000   1.0089134      18.741984      86.35387     
    393000   0.99648568     18.479225      86.264764    
    394000   1.0541097      18.490968      86.17715     
    395000   1.0402342      18.874438      86.161691    
    396000   1.0190311      18.284659      85.828098    
    397000   0.99187323     18.378358      85.69135     
    398000   0.98945046     18.450508      85.808424    
    399000   1.0169472      18.506633      85.712386    
    400000   0.99470273     18.70862       85.866398    
    401000   1.0162013      18.671114      85.622216    
    402000   1.0079112      18.433986      85.355488    
    403000   1.0016885      18.308116      85.18819     
    404000   0.99057081     18.234265      85.106878    
    405000   0.99909705     18.740313      84.914705    
    406000   1.0270704      18.252371      84.890362    
    407000   1.0082831      18.558726      84.745851    
    408000   1.0204146      18.40638       84.784816    
    409000   0.97081388     18.185279      84.489677    
    410000   0.99522622     18.020601      84.358438    
    411000   0.99370983     18.295657      84.379852    
    412000   1.0259897      18.328697      84.375671    
    413000   1.0241169      18.766318      84.15296     
    414000   1.0441454      18.619182      83.750067    
    415000   0.99771881     18.540436      83.706239    
    416000   0.99174591     18.749832      83.477492    
    417000   0.98678401     18.0609        83.185183    
    418000   1.0049308      17.907361      82.94942     
    419000   0.96433539     18.295253      82.741679    
    420000   0.99529193     18.268819      82.42952     
    421000   0.98652178     18.086711      82.257601    
    422000   1.0298372      18.316681      82.048709    
    423000   1.0378711      18.682569      81.81101     
    424000   0.98752409     18.005013      81.566914    
    425000   0.99081921     18.406173      81.580941    
    426000   0.97351727     18.120709      81.537551    
    427000   0.98926877     18.146291      81.562852    
    428000   0.99360539     18.432612      81.241941    
    429000   0.98313259     18.27007       81.074235    
    430000   0.95103332     18.283008      81.056263    
    431000   0.99030378     18.420526      80.800812    
    432000   0.99917601     18.736479      80.626663    
    433000   0.98999667     18.755964      80.6344      
    434000   0.96865907     18.302272      80.328441    
    435000   0.98712204     18.115139      80.054108    
    436000   1.0030578      18.783762      79.865619    
    437000   1.0086069      18.43119       79.577557    
    438000   1.0115133      18.162384      79.32306     
    439000   1.0176695      18.266461      79.357729    
    440000   1.0029736      18.729761      79.211454    
    441000   1.0006081      18.788082      79.114586    
    442000   1.0485857      19.240762      78.890021    
    443000   0.99369987     17.799695      78.818257    
    444000   0.95760297     18.202411      78.688793    
    445000   0.99720238     18.521855      78.632754    
    446000   1.0084828      18.318224      78.577909    
    447000   0.99504754     18.276214      78.664951    
    448000   1.0340432      18.687302      78.451457    
    449000   1.018362       18.163458      78.42182     
    450000   0.95204118     18.296163      78.359542    
    451000   1.0217723      18.113727      78.441189    
    452000   0.99045434     18.431282      78.094508    
    453000   1.0060693      18.39822       78.104949    
    454000   1.0339491      18.175984      78.023445    
    455000   1.0065372      18.484382      78.096476    
    456000   0.95268845     18.287092      78.006249    
    457000   0.98615989     18.542942      77.917852    
    458000   1.0095458      18.283014      78.005777    
    459000   0.99143242     18.151365      77.844877    
    460000   0.9989251      18.457633      77.836439    
    461000   1.0229096      18.225613      77.456392    
    462000   1.0229566      17.992683      77.395247    
    463000   0.99841622     18.567873      77.288506    
    464000   0.99951899     18.523833      77.486177    
    465000   0.97399749     18.652792      77.507835    
    466000   1.0626656      18.570724      77.331395    
    467000   0.98612026     17.950678      77.303308    
    468000   0.97610393     18.680375      77.048727    
    469000   1.0223289      18.722822      76.916631    
    470000   0.98393844     18.310621      77.049484    
    471000   1.0333655      18.076783      76.93934     
    472000   1.0096281      18.132285      76.889242    
    473000   0.99707367     18.548793      76.64249     
    474000   1.009412       18.323069      76.542085    
    475000   1.0012247      17.72135       76.419436    
    476000   0.97597382     17.919587      76.150529    
    477000   1.0000134      18.589514      76.11743     
    478000   1.0091574      17.964078      76.006373    
    479000   1.0009837      18.169469      75.80432     
    480000   1.0230386      17.971354      75.560896    
    481000   1.00112        18.514584      75.280806    
    482000   0.98079015     18.294429      75.284243    
    483000   1.01134        18.455221      75.340916    
    484000   0.98836598     18.209249      75.19575     
    485000   0.97771932     18.709316      74.944297    
    486000   1.0044624      18.429017      74.93068     
    487000   0.97566406     18.32748       74.831546    
    488000   1.0097289      18.026788      74.761575    
    489000   0.99104225     18.24098       74.514969    
    490000   1.0230814      18.193129      74.4114      
    491000   1.0269626      18.595677      74.276766    
    492000   0.99940523     18.326176      74.155866    
    493000   1.0167978      18.23627       73.892247    
    494000   1.0292412      17.594876      73.649132    
    495000   1.0001407      18.004335      73.549771    
    496000   0.95287833     18.081325      73.605031    
    497000   0.95121191     18.007792      73.392418    
    498000   0.98698625     18.111231      73.295657    
    499000   0.96843299     18.476999      73.129422    
    500000   0.98660475     18.623946      72.930546    
    501000   0.97801994     18.05704       72.734435    
    502000   1.0142756      18.348689      72.643065    
    503000   1.0336817      18.63401       72.804659    
    504000   0.9825417      18.06329       72.712979    
    505000   1.0332841      18.646482      72.41197     
    506000   1.0111143      18.241963      72.204228    
    507000   1.0139047      18.504388      72.129519    
    508000   1.006643       18.223304      71.96998     
    509000   1.0114883      18.321106      72.047502    
    510000   0.99116579     18.278866      71.777221    
    511000   1.031148       18.484408      71.626119    
    512000   0.99523442     18.478143      71.425883    
    513000   1.0352258      18.355957      71.309113    
    514000   0.97484368     18.449896      71.234973    
    515000   0.99608833     18.609558      71.009196    
    516000   0.98330856     18.523469      70.920505    
    517000   0.98336131     18.600884      70.866253    
    518000   1.0106083      18.230213      70.597338    
    519000   0.99463808     18.054646      70.705888    
    520000   0.99018327     18.885307      70.593158    
    521000   0.97191282     17.788816      70.428989    
    522000   0.9942248      18.360699      70.250335    
    523000   0.99553722     18.244657      70.066213    
    524000   1.0174559      18.562404      70.001066    
    525000   1.0085136      18.017142      69.724207    
    526000   0.96364952     17.938134      69.469377    
    527000   1.0406414      18.083192      69.204262    
    528000   1.0227257      18.010968      69.207885    
    529000   0.96491343     17.781381      69.077368    
    530000   0.95791849     18.098383      68.846932    
    531000   1.0282594      18.114291      68.541002    
    532000   0.98672007     18.395545      68.357477    
    533000   1.0168797      18.689778      68.304842    
    534000   0.99562408     18.319216      68.209656    
    535000   1.0024122      17.849366      68.052867    
    536000   0.9796922      18.658371      67.926004    
    537000   1.0096366      18.301972      67.630203    
    538000   0.98226598     17.798866      67.550176    
    539000   0.9869895      18.015757      67.633319    
    540000   1.0022074      18.125022      67.154868    
    541000   1.0334236      18.236059      66.90022     
    542000   1.037752       18.585725      66.770731    
    543000   0.99214601     18.390747      66.837802    
    544000   1.0392964      18.704893      66.671819    
    545000   0.97627514     18.058362      66.4927      
    546000   0.99089396     18.329662      66.53238     
    547000   0.99975111     18.250963      66.446125    
    548000   0.98029005     18.037899      66.306479    
    549000   0.99488729     18.220708      66.442701    
    550000   0.98946735     17.849245      66.463691    
    551000   1.0282338      17.946687      66.565374    
    552000   0.9772619      17.817829      66.624762    
    553000   1.0249429      18.603228      66.675777    
    554000   0.98143173     18.220297      66.486679    
    555000   1.0089877      18.143892      66.52352     
    556000   1.0232784      18.532539      66.360029    
    557000   0.98327565     18.076835      66.238245    
    558000   1.0191084      18.097273      65.995446    
    559000   0.99558456     18.262578      65.754742    
    560000   0.98955598     18.608921      65.538035    
    561000   1.0168063      17.97985       65.244582    
    562000   1.0013276      18.097964      65.185743    
    563000   0.95062651     17.688905      65.013581    
    564000   0.95905098     17.682049      64.949204    
    565000   0.99822841     17.947982      64.954364    
    566000   1.0014444      18.292575      64.915165    
    567000   1.0270804      17.813926      64.783036    
    568000   0.97611411     17.924189      64.68896     
    569000   1.0099011      17.80583       64.653648    
    570000   0.98054311     18.06961       64.702287    
    571000   1.0007625      18.514465      64.561752    
    572000   0.96336992     17.836564      64.506952    
    573000   0.98989161     18.088246      64.435431    
    574000   1.0051955      18.050465      64.34454     
    575000   1.0204056      18.177711      64.06094     
    576000   0.98503673     17.947163      63.904013    
    577000   1.0165298      18.583281      63.654092    
    578000   0.99306214     18.189527      63.512204    
    579000   0.99204482     18.265191      63.507949    
    580000   1.0097755      17.916019      63.437973    
    581000   0.99865699     18.152039      63.472976    
    582000   0.97079235     18.420243      63.422989    
    583000   0.95843371     18.321648      63.28787     
    584000   1.0595667      18.410043      63.335361    
    585000   1.0244955      17.872956      63.192331    
    586000   0.93494045     17.168597      63.231542    
    587000   1.017745       18.517487      62.983146    
    588000   1.009535       17.794266      63.050218    
    589000   1.0095117      18.593252      63.061783    
    590000   0.96378367     18.233923      62.929419    
    591000   0.97966725     17.820692      62.734303    
    592000   1.0299772      18.679569      62.607675    
    593000   1.0015435      18.193661      62.462585    
    594000   1.0351217      18.150255      62.26081     
    595000   0.98562031     17.846167      62.290492    
    596000   1.0196136      17.831776      62.428254    
    597000   0.95548291     17.79851       62.477527    
    598000   0.98176087     17.292899      62.48247     
    599000   1.019693       18.011399      62.331579    
    600000   1.0184005      18.304891      62.152608    
    601000   1.0212962      18.559345      62.050547    
    602000   1.0128585      18.106421      61.86831     
    603000   1.0403306      18.012557      61.564825    
    604000   1.0058587      18.340075      61.83437     
    605000   0.96777864     17.630158      61.806464    
    606000   1.0154821      18.517566      61.538297    
    607000   0.98937302     17.687206      61.338347    
    608000   0.99697141     18.043127      61.319986    
    609000   0.93757066     17.932383      61.238071    
    610000   0.99742571     17.494862      61.069955    
    611000   0.99578112     18.245284      60.822416    
    612000   1.0536995      18.304932      60.77904     
    613000   0.98860499     17.459086      60.647324    
    614000   0.99056235     18.152618      60.540943    
    615000   0.96154671     17.628495      60.331989    
    616000   0.99408559     17.457073      60.060869    
    617000   0.97936692     18.090381      60.161336    
    618000   0.99075927     18.351573      59.967785    
    619000   0.99121833     17.898866      59.811426    
    620000   1.0048664      18.23633       59.555838    
    621000   1.0126087      18.13078       59.211436    
    622000   0.990073       18.25288       59.151943    
    623000   1.022241       17.727854      59.169533    
    624000   0.98805177     17.733063      59.132427    
    625000   0.99070092     17.990679      59.077652    
    626000   1.0007652      17.903634      58.886626    
    627000   0.97479221     17.882404      58.73168     
    628000   1.016623       17.651026      58.589677    
    629000   0.99925301     17.936993      58.465822    
    630000   0.97618573     17.876559      58.152418    
    631000   0.97894847     17.528214      58.120319    
    632000   0.98218666     17.1672        57.843222    
    633000   0.99060841     17.51795       57.646735    
    634000   1.0024751      18.169172      57.760787    
    635000   0.98601556     17.958546      57.825484    
    636000   1.019512       17.707593      57.68711     
    637000   1.0036316      18.150088      57.560263    
    638000   1.0123029      18.229494      57.469654    
    639000   0.99932706     18.098664      57.159361    
    640000   1.0474143      18.092461      57.139287    
    641000   1.029427       18.022898      56.929554    
    642000   0.97261868     18.621616      56.843522    
    643000   1.0117795      17.458357      56.748844    
    644000   1.0276582      18.099776      56.616335    
    645000   1.0146354      17.977499      56.577676    
    646000   0.98987865     18.139636      56.360154    
    647000   1.0421124      18.152648      56.285542    
    648000   1.0113946      18.075354      56.224238    
    649000   0.97832446     17.793599      56.06728     
    650000   0.99701045     18.162376      55.789392    
    651000   0.99797893     17.798334      55.808766    
    652000   0.99448097     18.062313      55.679007    
    653000   1.0251248      18.115188      55.628572    
    654000   0.99386681     17.657687      55.345468    
    655000   1.0273683      18.160996      55.459023    
    656000   1.0252338      18.08589       55.191947    
    657000   1.0273311      17.778604      55.250613    
    658000   0.98252644     18.564655      55.294469    
    659000   0.96546307     17.826782      55.297136    
    660000   1.0190408      17.855088      55.164995    
    661000   1.0145826      17.909253      55.117253    
    662000   0.96975497     17.626312      54.872249    
    663000   1.0166826      17.712068      54.894683    
    664000   1.014925       17.936378      54.919457    
    665000   0.9999206      18.144366      54.82999     
    666000   0.97126182     17.872999      54.57809     
    667000   1.0124614      18.409278      54.593652    
    668000   1.0047779      17.489479      54.625043    
    669000   1.0187427      18.402803      54.651744    
    670000   1.0201473      17.968029      54.412784    
    671000   0.99474592     17.731319      54.354899    
    672000   1.0060061      18.08497       53.890961    
    673000   0.99421908     17.81623       53.641921    
    674000   1.0042361      18.656095      53.627329    
    675000   1.0137082      17.95769       53.405992    
    676000   1.0033679      18.021674      53.44054     
    677000   1.0334973      18.157609      53.122679    
    678000   1.0046391      18.326938      53.020238    
    679000   0.97086375     17.715128      52.789055    
    680000   0.94534135     18.091163      52.627074    
    681000   0.99508213     18.270422      52.419349    
    682000   0.9728931      18.095815      52.278658    
    683000   1.0207842      17.78259       52.168298    
    684000   1.0036728      18.041271      52.133778    
    685000   1.0070923      17.762077      52.191862    
    686000   1.0109079      17.98353       52.267623    
    687000   0.97798783     17.558894      52.31361     
    688000   1.0027809      17.448482      52.122613    
    689000   1.0067104      18.10518       52.104746    
    690000   0.95418246     18.299147      52.019153    
    691000   1.0354487      17.696434      51.974932    
    692000   0.98818071     18.025602      51.954101    
    693000   1.0087221      17.842384      51.805433    
    694000   1.0150193      17.808426      51.920973    
    695000   1.045437       17.772065      51.644089    
    696000   1.0165215      18.25808       51.671277    
    697000   0.97107786     17.729535      51.588993    
    698000   1.0493324      17.503596      51.354065    
    699000   1.0614765      18.071975      51.321664    
    700000   1.0300917      18.012602      51.234197    
    701000   0.97713873     17.875944      51.097909    
    702000   1.0381712      17.578437      51.109243    
    703000   1.0180246      17.879688      51.037033    
    704000   1.0347517      17.710118      50.971965    
    705000   1.0116568      17.990781      50.774228    
    706000   1.0125583      17.911324      50.597997    
    707000   1.0028643      18.080328      50.335452    
    708000   1.022034       17.907119      50.167613    
    709000   1.0287951      18.371387      49.857374    
    710000   0.94820169     18.233925      49.778012    
    711000   0.9799356      18.037782      49.54165     
    712000   1.0021741      18.116906      49.319081    
    713000   0.97056502     17.665839      49.305429    
    714000   0.98154516     17.81064       49.319872    
    715000   0.99398045     17.847995      49.57524     
    716000   1.0334307      18.414635      49.815719    
    717000   1.0085546      18.015931      49.843721    
    718000   1.0217299      18.039849      49.810381    
    719000   1.0002033      17.69797       49.891835    
    720000   1.0052168      17.640985      49.860107    
    721000   1.0239302      17.96694       49.837158    
    722000   1.0155414      17.425604      49.879257    
    723000   1.0215812      18.002019      50.001751    
    724000   0.9990895      18.662811      49.881497    
    725000   0.99120774     18.140122      49.797582    
    726000   1.0149612      17.587309      49.788042    
    727000   0.97844641     17.75943       49.794944    
    728000   1.0387538      18.399945      49.931752    
    729000   1.0108573      18.250511      49.557703    
    730000   0.98928394     18.19595       49.42851     
    731000   0.98684055     17.806942      49.436395    
    732000   0.99051879     17.744985      49.275248    
    733000   1.0255149      17.502719      49.174038    
    734000   0.95859974     16.817857      49.168418    
    735000   1.0065125      17.686325      48.987197    
    736000   0.95220359     17.071203      48.965701    
    737000   1.0325081      17.924299      49.037173    
    738000   0.97911529     18.071402      48.653179    
    739000   0.96895317     17.876956      48.453387    
    740000   0.99195674     17.378231      48.372507    
    741000   1.018751       17.723764      48.242847    
    742000   0.97321        17.9841        48.103789    
    743000   1.025138       17.659425      48.169065    
    744000   1.0165478      18.043224      48.031629    
    745000   0.98152208     17.203247      48.089795    
    746000   1.0190217      17.97383       47.949212    
    747000   0.9994505      17.781811      47.940249    
    748000   1.0163183      17.894813      47.662352    
    749000   1.0597589      17.074529      47.531496    
    750000   0.98571577     17.469199      47.423341    
    751000   0.9917945      17.984377      47.496293    
    752000   0.96834462     17.88348       47.326087    
    753000   0.99911092     18.480485      47.280396    
    754000   0.98062881     17.839197      47.112292    
    755000   1.0092068      17.972367      46.938467    
    756000   1.0076694      17.452568      46.918936    
    757000   1.0349362      17.917127      47.005894    
    758000   1.0055846      18.274738      46.784556    
    759000   0.98764164     18.198865      46.84021     
    760000   1.0249434      17.886552      46.792163    
    761000   1.0064589      17.664005      46.414757    
    762000   0.97727379     17.867779      46.270565    
    763000   1.0063577      17.832325      46.33245     
    764000   1.0068006      17.374113      46.024156    
    765000   0.98937836     17.846116      45.85459     
    766000   1.0383328      17.832311      45.669657    
    767000   1.0056888      17.675321      45.449622    
    768000   1.0187521      18.117625      45.24714     
    769000   1.0063706      17.74161       45.190312    
    770000   0.97136624     17.303796      44.764261    
    771000   1.0432396      18.053259      44.866711    
    772000   0.97731475     17.255784      44.920437    
    773000   0.96609015     17.795594      44.701281    
    774000   0.99553148     17.513712      44.490692    
    775000   0.98681668     17.782787      44.405397    
    776000   1.0126148      18.336357      44.392663    
    777000   1.0496058      17.686995      44.091326    
    778000   1.0030653      17.522487      43.87244     
    779000   1.0279969      17.562361      43.64912     
    780000   1.0105238      17.509924      43.352623    
    781000   0.98190312     17.47118       43.371591    
    782000   1.0112355      17.969843      43.124006    
    783000   1.0280721      17.904555      43.0967      
    784000   1.0018333      17.983195      42.980566    
    785000   0.99880426     17.664437      43.146323    
    786000   1.0001593      17.379153      42.984071    
    787000   0.98233474     17.584494      42.996578    
    788000   1.0233129      18.387753      43.078291    
    789000   1.0121662      17.710721      42.962958    
    790000   0.9962658      17.695693      42.891076    
    791000   0.96859749     17.593754      42.649154    
    792000   1.0198428      17.14431       42.465019    
    793000   1.0059346      17.956296      42.321561    
    794000   1.0147612      17.791357      42.273422    
    795000   1.02263        17.835641      42.236312    
    796000   0.96851308     17.691218      41.940104    
    797000   0.95186103     17.71429       41.753342    
    798000   0.98441758     17.571302      41.721059    
    799000   1.0058374      17.53449       41.771646    
    800000   0.99383858     17.330835      41.602409    
    801000   1.0000949      17.527536      41.659598    
    802000   0.98408304     17.373634      41.46697     
    803000   0.98762141     17.579747      41.629495    
    804000   0.96404408     17.713029      41.61241     
    805000   0.99678917     18.262857      41.507798    
    806000   1.0229387      17.098663      41.347248    
    807000   0.97715979     17.382179      41.353801    
    808000   1.0290174      18.123529      41.427272    
    809000   1.0023392      17.474         41.182805    
    810000   1.0132956      17.931177      40.973269    
    811000   1.0333741      17.551703      40.682578    
    812000   1.020835       17.35005       40.479808    
    813000   1.0099173      17.741942      40.130656    
    814000   1.0540399      17.96595       40.258001    
    815000   0.95373731     17.200496      40.113899    
    816000   1.011015       18.297239      40.014426    
    817000   0.9941818      18.070455      40.050831    
    818000   1.0281511      17.817282      40.078866    
    819000   1.008048       17.443721      39.988045    
    820000   1.0324208      17.515159      40.04177     
    821000   0.98619166     17.879137      39.891885    
    822000   1.0031964      17.478536      39.752645    
    823000   1.0137199      17.829807      39.557217    
    824000   1.0120277      17.866487      39.394496    
    825000   1.0355378      17.856169      39.340782    
    826000   0.99446575     17.451261      39.06685     
    827000   0.99674598     17.369723      38.917955    
    828000   1.0502863      18.204406      38.861131    
    829000   1.0301084      17.719139      38.73525     
    830000   1.0047957      17.602262      38.478893    
    831000   0.99452177     18.005205      38.325353    
    832000   0.98688202     17.110794      38.109551    
    833000   0.98531176     17.898658      38.046208    
    834000   0.96707938     17.55329       37.947154    
    835000   0.98529455     17.093914      37.739655    
    836000   0.99458805     18.141807      37.58974     
    837000   0.97650864     17.758812      37.458587    
    838000   1.0122764      17.448727      37.375671    
    839000   1.0132151      17.531849      37.226059    
    840000   0.99322716     17.583536      37.003401    
    841000   0.99754156     17.793552      36.881678    
    842000   1.0326205      17.258291      36.796289    
    843000   0.99760815     17.085219      36.711158    
    844000   0.99750071     17.608287      36.756107    
    845000   1.012175       17.420036      36.733657    
    846000   0.99880663     17.698871      36.943598    
    847000   0.97297972     17.519615      36.816386    
    848000   1.0066754      17.717632      36.429088    
    849000   1.0064127      17.601526      36.343159    
    850000   1.0077057      16.921891      36.228108    
    851000   1.0334169      17.487394      36.056998    
    852000   1.0140283      17.329831      35.86832     
    853000   0.97190001     17.614143      35.714564    
    854000   0.99659746     16.961434      35.641126    
    855000   0.98180859     17.270358      35.589706    
    856000   0.99000071     17.396813      35.461385    
    857000   1.0138454      17.34139       35.44027     
    858000   0.9942977      17.731834      35.382374    
    859000   0.98580011     17.467575      35.284853    
    860000   0.97628742     17.294114      35.152267    
    861000   1.0365665      17.835996      35.080709    
    862000   1.0117427      18.028287      34.887427    
    863000   0.99346424     17.42693       34.662493    
    864000   1.0072191      18.040104      34.559129    
    865000   1.0005848      17.161027      34.402299    
    866000   0.9685588      17.611033      34.220917    
    867000   1.0165781      17.444907      34.016159    
    868000   1.044464       17.479944      34.084343    
    869000   0.98539918     17.912616      33.964306    
    870000   1.0289222      17.666871      33.966445    
    871000   1.0224587      17.798442      33.859353    
    872000   0.99768256     17.606172      33.753863    
    873000   1.0261588      17.791633      33.7648      
    874000   0.98506289     17.503643      33.484142    
    875000   1.0065157      17.843683      33.465421    
    876000   1.0052728      17.736609      33.26807     
    877000   0.97276703     17.587387      33.247249    
    878000   0.99596495     17.757357      33.249855    
    879000   1.0150298      17.548439      33.200725    
    880000   1.0351664      17.31989       33.216742    
    881000   1.0028824      17.717069      33.147249    
    882000   0.97007743     17.598292      32.979555    
    883000   1.0571694      17.238443      33.150589    
    884000   0.99410279     17.697739      33.111288    
    885000   0.96850092     17.344041      33.037005    
    886000   1.0198003      17.831985      32.99321     
    887000   0.96379301     17.072588      32.875       
    888000   1.0189607      17.405734      32.696984    
    889000   0.99657761     17.754004      32.396218    
    890000   1.0031016      17.111589      32.498111    
    891000   1.011492       17.920292      32.341887    
    892000   0.99295067     17.572987      32.323819    
    893000   0.98606235     17.560706      32.356871    
    894000   0.97526247     17.10323       32.399434    
    895000   1.0334054      17.997034      32.142357    
    896000   1.0377561      17.95336       32.108309    
    897000   1.0332603      17.536794      32.03466     
    898000   0.96722826     17.244313      31.733822    
    899000   1.0256875      17.662374      31.595874    
    900000   1.0381967      17.06283       31.544333    
    901000   0.98601631     16.903831      31.491663    
    902000   0.96240035     16.776349      31.302311    
    903000   0.99840363     17.282462      31.187289    
    904000   1.0175861      17.675191      31.308492    
    905000   1.0463039      17.516859      31.20558     
    906000   0.99053692     17.015001      31.195087    
    907000   0.99247519     17.608869      31.062275    
    908000   1.0271849      18.0676        30.983562    
    909000   1.0099961      17.272158      31.085437    
    910000   1.0283444      17.486536      30.979234    
    911000   0.99849927     16.883416      31.042453    
    912000   1.004208       17.462031      30.890957    
    913000   0.99757234     17.903677      30.862456    
    914000   1.0202911      17.331893      30.829441    
    915000   0.96586354     16.991984      30.856064    
    916000   1.0196377      17.656043      30.832532    
    917000   0.99706123     17.235572      30.93816     
    918000   0.98049859     17.019566      30.719876    
    919000   0.98097078     17.226475      30.618915    
    920000   0.9835744      17.132638      30.458336    
    921000   1.0134755      17.992438      30.644594    
    922000   0.9915106      17.043381      30.550547    
    923000   1.0461707      17.513189      30.566356    
    924000   1.049497       18.013755      30.426369    
    925000   0.98851501     17.138126      30.465717    
    926000   1.0389332      17.515303      30.406889    
    927000   0.9697697      17.11878       30.148868    
    928000   1.0128762      17.607039      30.057365    
    929000   0.99690657     17.518028      29.944754    
    930000   1.0213021      17.930428      29.834409    
    931000   0.98253914     17.165709      29.696595    
    932000   1.0611928      17.363635      29.595697    
    933000   0.9740985      17.696472      29.607058    
    934000   1.0057616      17.071623      29.483747    
    935000   1.0187609      17.53981       29.442836    
    936000   1.0251958      17.982311      29.443181    
    937000   1.0032219      17.132519      29.209012    
    938000   0.96501592     17.310511      29.232702    
    939000   1.0151037      17.624889      29.221736    
    940000   0.96032535     17.702839      29.112545    
    941000   1.0203104      17.441052      29.202207    
    942000   1.0158902      17.264434      29.163728    
    943000   0.99185661     17.15779       29.040059    
    944000   1.0251695      17.701115      28.96147     
    945000   0.98773952     17.196066      28.916485    
    946000   1.0349861      17.156031      28.740258    
    947000   0.99686231     17.053003      28.548008    
    948000   1.0256417      17.432458      28.169675    
    949000   1.0142215      17.382079      28.073944    
    950000   1.0041042      17.555292      27.733272    
    951000   1.0307914      17.062571      27.511757    
    952000   1.0030636      17.204567      27.165446    
    953000   1.0115264      17.173482      27.12473     
    954000   1.0166906      17.059531      27.128892    
    955000   1.0316417      17.583881      26.961309    
    956000   0.96578384     17.200462      27.044093    
    957000   0.97160893     17.205297      26.817223    
    958000   0.98656171     17.347293      26.728563    
    959000   1.0353912      17.569676      26.794055    
    960000   1.0235282      17.587463      26.690741    
    961000   0.9833206      17.451989      26.849995    
    962000   0.99565311     17.683809      26.897589    
    963000   0.98748662     17.542362      26.855171    
    964000   0.99465814     17.319626      26.838809    
    965000   1.0248159      17.216909      26.801999    
    966000   1.0138399      17.422954      26.594944    
    967000   0.98495786     17.57428       26.587012    
    968000   0.98440636     16.754764      26.501373    
    969000   0.97653541     17.606371      26.405454    
    970000   0.98790153     17.111882      26.276974    
    971000   0.98645893     17.567587      26.203121    
    972000   1.0038095      17.30061       25.899512    
    973000   0.9956449      17.188365      25.816186    
    974000   0.97767916     17.315883      25.606428    
    975000   0.99510241     17.385594      25.563808    
    976000   0.9877091      17.433476      25.562947    
    977000   0.95702988     17.76611       25.705376    
    978000   1.0334532      17.4501        25.512651    
    979000   1.0101464      17.734371      25.441008    
    980000   1.0070602      17.458311      25.350081    
    981000   0.99437678     17.072072      25.265549    
    982000   0.99621824     17.201969      25.078229    
    983000   0.99742018     17.351901      24.95397     
    984000   0.98854933     17.660383      24.750034    
    985000   1.0019172      17.464989      24.73217     
    986000   0.94492914     17.377694      24.732663    
    987000   0.99508736     17.475093      24.515637    
    988000   1.0260925      18.034387      24.406611    
    989000   1.0127803      17.773277      24.061937    
    990000   0.98602044     17.082754      23.908492    
    991000   0.99451022     17.343844      23.897374    
    992000   1.0208352      17.534758      23.939665    
    993000   0.94926186     17.141728      23.595317    
    994000   1.0222883      17.190141      23.537798    
    995000   0.95843453     17.784327      23.441549    
    996000   1.029242       17.36922       23.461392    
    997000   1.0037592      17.373635      23.471768    
    998000   1.0119678      17.487257      23.391658    
    999000   1.055164       17.48089       23.359245    
   1000000   0.99880482     17.278729      23.313165    
   1001000   1.0129683      17.649467      23.211204    
   1002000   1.0034839      17.364914      22.98956     
   1003000   0.95496598     17.26396       22.985573    
   1004000   0.97431519     17.131329      22.988526    
   1005000   0.95427609     16.94767       22.680113    
   1006000   1.0249526      17.419336      22.774351    
   1007000   1.022638       17.968249      22.818812    
   1008000   0.96801        16.908539      22.694076    
   1009000   0.99133121     17.219595      22.741013    
   1010000   0.99489878     16.951538      22.529292    
   1011000   1.0116734      17.093757      22.4456      
   1012000   0.970295       17.446996      22.29041     
   1013000   1.0203184      17.2505        22.305016    
   1014000   1.0019462      16.870736      22.348755    
   1015000   1.0419699      17.518243      22.329939    
   1016000   0.99213888     17.101853      22.451382    
   1017000   1.0266104      17.463606      22.388311    
   1018000   1.0145878      17.087309      22.084592    
   1019000   0.99351896     17.358996      22.165135    
   1020000   0.97241184     16.690916      21.928994    
   1021000   1.0410906      17.054387      21.745409    
   1022000   1.0200639      16.997604      21.664515    
   1023000   0.99233285     17.212699      21.312693    
   1024000   0.99324907     17.190035      21.194049    
   1025000   0.97665827     17.653905      21.066088    
   1026000   0.98817683     17.38567       21.037678    
   1027000   1.0112009      17.203611      20.851965    
   1028000   0.98032934     17.346265      20.70289     
   1029000   0.96017068     16.84454       20.579978    
   1030000   0.98572666     17.589532      20.562421    
   1031000   1.0072154      17.246688      20.559483    
   1032000   1.026696       17.270077      20.225929    
   1033000   0.9888948      17.401479      20.258782    
   1034000   0.96989756     17.020056      20.213074    
   1035000   0.99706847     16.976798      20.013615    
   1036000   1.0061682      17.278961      19.91442     
   1037000   0.99335405     17.093846      19.886584    
   1038000   1.0268399      17.558826      19.772064    
   1039000   1.0118763      16.88523       19.397829    
   1040000   0.98207101     17.17216       19.239339    
   1041000   1.0091703      17.482206      19.252156    
   1042000   0.99002641     17.273621      18.905746    
   1043000   1.011008       17.237551      18.953668    
   1044000   0.98285521     17.277413      19.008756    
   1045000   0.99068622     16.896633      19.010727    
   1046000   1.0035448      16.807688      19.03555     
   1047000   0.99852713     17.250673      18.999689    
   1048000   1.0165044      17.145983      19.028818    
   1049000   0.9599093      16.677714      18.982222    
   1050000   1.0180383      17.041096      19.008682    
   1051000   0.98019533     16.590391      18.820603    
   1052000   0.99031744     16.447981      18.601009    
   1053000   1.0016336      17.0497        18.589235    
   1054000   1.024345       17.103526      18.51783     
   1055000   0.94613272     16.72772       18.703606    
   1056000   0.99578617     17.157075      18.546334    
   1057000   0.96664368     16.749906      18.565312    
   1058000   1.0125536      17.380013      18.514093    
   1059000   1.0041421      16.50548       18.234124    
   1060000   1.0097324      17.038189      18.347104    
   1061000   0.99489685     16.640829      18.350192    
   1062000   0.99487814     16.639021      18.230344    
   1063000   1.0286993      17.03979       18.286133    
   1064000   0.98257567     16.997307      18.187826    
   1065000   0.98773174     17.24673       18.181953    
   1066000   1.0349806      17.014524      17.952156    
   1067000   0.98951937     17.062127      17.879308    
   1068000   0.97352536     16.51062       18.023673    
   1069000   1.0164615      17.057264      17.930859    
   1070000   1.0027077      16.978784      17.916881    
   1071000   0.9811327      17.183805      17.981361    
   1072000   1.0137823      16.632816      18.054504    
   1073000   1.0326597      17.044795      18.109933    
   1074000   1.0063643      17.194454      17.821139    
   1075000   1.0085917      16.925467      17.654119    
   1076000   1.0309824      17.480859      17.530149    
   1077000   0.99762013     16.668557      17.684763    
   1078000   1.0237509      16.388791      17.513276    
   1079000   0.98567581     16.59989       17.347773    
   1080000   0.98177966     17.061537      17.344735    
   1081000   0.97504053     17.126335      17.594067    
   1082000   1.0070299      16.909955      17.626451    
   1083000   0.96280565     16.880383      17.722867    
   1084000   0.99220339     16.68436       17.723454    
   1085000   0.99445749     17.061897      17.857939    
   1086000   1.0014301      17.539496      17.754827    
   1087000   1.0202852      16.831411      17.793634    
   1088000   0.98389419     17.03523       17.792914    
   1089000   0.97251506     16.885819      17.813005    
   1090000   0.99955722     16.73038       17.682747    
   1091000   1.0041289      16.594354      17.643819    
   1092000   1.0046532      17.320656      17.45368     
   1093000   1.008418       17.69729       17.261026    
   1094000   0.99027006     16.864045      17.207103    
   1095000   0.95770724     16.28799       17.102982    
   1096000   0.99825384     17.382873      17.124632    
   1097000   0.9839805      16.94695       17.018483    
   1098000   0.99612239     17.396702      17.04246     
   1099000   0.95260904     16.969336      16.771665    
   1100000   1.0217093      16.98067       16.623603    
   1101000   1.0146275      16.743312      16.32013     
   1102000   1.0213432      16.745411      16.180951    
   1103000   1.0215505      17.113132      16.137762    
   1104000   1.006047       16.915086      15.924708    
   1105000   1.0115004      17.625436      15.575656    
   1106000   1.0023936      17.126477      15.690413    
   1107000   1.0485904      17.059957      15.703451    
   1108000   0.99380667     16.853627      15.525354    
   1109000   1.0244853      16.826066      15.550706    
   1110000   1.0254587      16.916351      15.643835    
   1111000   0.97919959     16.52831       15.675363    
   1112000   0.98524862     16.880244      15.767737    
   1113000   0.98867321     17.125086      15.709909    
   1114000   1.0032994      17.312131      15.599103    
   1115000   0.99771867     16.763611      15.562811    
   1116000   0.96427618     16.628452      15.623734    
   1117000   0.94552715     16.761635      15.799935    
   1118000   0.98197663     17.096922      15.931883    
   1119000   1.0134341      17.353987      16.134006    
   1120000   0.970905       16.960413      16.243426    
   1121000   1.0043991      16.969363      16.115328    
   1122000   1.0222652      17.002185      16.039915    
   1123000   0.99105452     16.832267      15.965938    
   1124000   0.95143116     16.726312      15.835217    
   1125000   1.0042552      16.926099      15.980508    
   1126000   0.97754856     17.208641      15.82698     
   1127000   0.99017965     16.724826      15.859821    
   1128000   1.0222259      16.727681      15.830069    
   1129000   0.99557366     16.95993       16.024289    
   1130000   0.98752021     17.027054      15.877518    
   1131000   0.98558418     17.113831      15.607046    
   1132000   1.0137716      16.400752      15.551948    
   1133000   0.97097019     16.921558      15.620936    
   1134000   1.0072708      17.039817      15.387418    
   1135000   0.98293491     16.964613      15.477141    
   1136000   0.9774629      17.050963      15.53894     
   1137000   1.017451       16.728602      15.50414     
   1138000   0.97708787     16.807152      15.525681    
   1139000   1.0115992      16.96572       15.370873    
   1140000   0.97579048     16.992644      15.324582    
   1141000   1.0180791      16.649748      15.14127     
   1142000   0.99327827     17.339684      15.122223    
   1143000   1.0243766      17.414929      14.968727    
   1144000   0.98750639     17.107003      15.052007    
   1145000   1.0054465      17.191485      14.981564    
   1146000   1.012281       17.387732      14.783682    
   1147000   0.95668646     16.582466      14.72322     
   1148000   1.039288       17.29886       14.518797    
   1149000   1.003652       17.183391      14.326223    
   1150000   0.99386153     17.262986      14.217236    
   1151000   1.01531        16.623657      14.046112    
   1152000   1.0498246      16.902401      14.018826    
   1153000   1.003108       17.058192      13.806625    
   1154000   1.0058178      16.965947      13.811729    
   1155000   0.99877691     16.859667      13.798561    
   1156000   0.999565       17.050704      13.651477    
   1157000   1.0104672      17.182832      13.508298    
   1158000   0.96803002     17.14429       13.326192    
   1159000   1.0585301      17.214047      13.145137    
   1160000   1.0090555      17.639049      13.16129     
   1161000   1.0564851      17.071857      13.092075    
   1162000   1.0032559      16.763575      13.145713    
   1163000   0.96762692     17.449659      13.143283    
   1164000   1.0264708      17.047663      12.921761    
   1165000   0.99478041     16.706478      12.868261    
   1166000   1.0380268      17.108856      12.95676     
   1167000   1.0313322      17.261763      12.818127    
   1168000   1.0180684      17.181028      12.719373    
   1169000   0.98539884     16.826046      12.910864    
   1170000   0.99738303     16.855701      12.816239    
   1171000   0.94919781     17.046017      12.680402    
   1172000   1.0308035      17.168666      12.591957    
   1173000   0.97925417     16.988872      12.62283     
   1174000   1.0155075      17.269167      12.470103    
   1175000   0.98296894     16.590403      12.39762     
   1176000   0.96802008     17.035473      12.629348    
   1177000   1.0106933      17.088453      12.518739    
   1178000   0.9753349      16.396357      12.498717    
   1179000   1.0176476      17.440361      12.681641    
   1180000   1.0235167      16.501233      12.498133    
   1181000   0.98033893     16.994195      12.451212    
   1182000   1.0192737      17.028471      12.188676    
   1183000   1.0335179      16.915813      12.022571    
   1184000   0.98859226     17.195522      11.821434    
   1185000   0.99478315     16.430018      11.624664    
   1186000   1.00088        16.947422      11.544745    
   1187000   0.97888822     16.874689      11.504717    
   1188000   1.0045863      16.568775      11.330331    
   1189000   0.98240026     17.061292      11.33354     
   1190000   0.96312167     16.953672      11.330119    
   1191000   0.968191       16.933915      11.177751    
   1192000   0.97122358     16.882175      11.258876    
   1193000   1.0088434      17.090872      11.288331    
   1194000   0.98265935     16.739597      11.041299    
   1195000   1.0048876      17.057781      10.774221    
   1196000   0.97790185     16.361763      10.602509    
   1197000   1.0170994      16.989204      10.735752    
   1198000   1.0265224      17.092346      10.80105     
   1199000   0.9707798      17.00247       10.626926    
   1200000   1.0031584      16.744876      10.375013    
   1201000   0.97585213     17.015699      10.328884    
   1202000   1.0103268      16.315116      10.146612    
   1203000   0.97211455     16.289207      10.04237     
   1204000   1.005319       17.031147      9.9338252    
   1205000   1.0014547      16.785802      9.9014434    
   1206000   0.9892772      16.729317      9.973647     
   1207000   0.94779172     16.446174      9.7924853    
   1208000   0.96350572     16.562332      9.5592495    
   1209000   0.97609589     17.023761      9.5358799    
   1210000   0.99642633     16.86615       9.464268     
   1211000   0.98594445     16.806037      9.3453146    
   1212000   1.0402075      17.258655      9.3999276    
   1213000   1.0336273      16.666145      9.3863315    
   1214000   1.0123657      16.970031      9.3520709    
   1215000   0.99581035     16.745369      9.2481464    
   1216000   0.94536238     16.763914      9.1805746    
   1217000   0.98417356     16.819394      9.2383407    
   1218000   0.97079579     16.894479      9.2131437    
   1219000   0.97674404     17.613607      9.3075512    
   1220000   0.99151479     17.068965      9.3447709    
   1221000   1.0146441      16.759325      9.2958468    
   1222000   1.0137541      16.730929      9.2256002    
   1223000   1.0198887      16.680764      9.1779119    
   1224000   0.98736739     17.159459      9.0367538    
   1225000   0.98776265     16.772579      9.0095596    
   1226000   0.96194563     16.683795      8.8887349    
   1227000   0.96625108     16.49949       8.7840643    
   1228000   1.0181349      17.015367      8.6114355    
   1229000   1.0335984      17.722245      8.4322689    
   1230000   1.0224521      16.791236      8.2016059    
   1231000   1.0112262      16.722251      8.3302544    
   1232000   1.0060735      16.762355      8.3892962    
   1233000   1.0318688      16.921222      8.4648006    
   1234000   0.9642667      17.01082       8.4591511    
   1235000   0.95765721     17.294784      8.3244216    
   1236000   1.0073823      17.048305      8.333502     
   1237000   0.98421757     17.122645      8.3887579    
   1238000   0.9841383      17.396598      8.319312     
   1239000   1.0036033      16.531969      8.4185918    
   1240000   0.99870286     17.148587      8.4413859    
   1241000   0.98025346     16.56565       8.33078      
   1242000   0.97136601     16.786268      8.3046318    
   1243000   1.0545603      17.00646       8.3473547    
   1244000   0.9973263      17.146634      8.3360559    
   1245000   1.0122472      16.784635      8.2197054    
   1246000   0.98038092     16.931641      8.1899244    
   1247000   1.0283571      16.397231      8.2127972    
   1248000   0.99964554     17.124078      8.1539701    
   1249000   0.97694802     16.93366       8.0117193    
   1250000   1.0019324      16.993993      7.9036555    
   1251000   1.0193891      16.51716       7.7384308    
   1252000   1.0271279      16.982857      7.5784132    
   1253000   1.0044904      17.636391      7.4645555    
   1254000   0.97707121     17.086471      7.4404874    
   1255000   0.99287505     16.864209      7.366072     
   1256000   0.96237146     16.985826      7.3338224    
   1257000   0.97988105     17.226488      7.2773224    
   1258000   0.98934591     17.042193      7.1124148    
   1259000   0.98916861     16.547093      7.0113196    
   1260000   1.0137717      17.048195      6.857959     
   1261000   0.96599206     16.760975      6.5571752    
   1262000   1.0256359      16.542872      6.38311      
   1263000   1.0391233      16.755218      6.2382292    
   1264000   0.97233724     16.787591      6.1027949    
   1265000   1.0241316      16.915844      5.9596131    
   1266000   0.97238579     17.031035      6.0253412    
[...]
   4775000   0.99349963     16.804497      5.3770703    
   4776000   0.99474272     16.238176      5.3868581    
   4777000   0.98613423     16.423413      5.4063063    
   4778000   1.0024801      16.673906      5.3892019    
   4779000   1.0309473      17.237566      5.389623     
   4780000   1.0128343      17.626195      5.3652618    
   4781000   0.99042853     16.474161      5.3868339    
   4782000   0.9586975      16.435938      5.405726     
   4783000   1.0114767      16.906889      5.4169283    
   4784000   1.00674        16.458764      5.3864178    
   4785000   0.99523521     16.673383      5.3914869    
   4786000   0.99906717     16.743223      5.3650321    
   4787000   1.0651068      17.009473      5.4000847    
   4788000   1.0581526      16.711997      5.3541638    
   4789000   1.0149288      17.026144      5.3616867    
   4790000   1.0084343      16.690585      5.386865     
   4791000   1.0418513      16.969329      5.3874436    
   4792000   0.99446662     16.360889      5.3876085    
   4793000   0.99475141     16.607826      5.373111     
   4794000   1.0019826      16.723207      5.3809461    
   4795000   0.98514638     16.529988      5.3702254    
   4796000   0.99218954     16.419326      5.3965033    
   4797000   1.0195265      16.530478      5.3535216    
   4798000   1.0074326      17.11921       5.3557593    
   4799000   1.0164833      16.750571      5.3721818    
   4800000   1.0523051      17.040431      5.3813213    
   4801000   1.0024432      17.033368      5.3720002    
   4802000   1.0084476      16.522838      5.3996224    
   4803000   1.0205122      16.963694      5.3990339    
   4804000   0.96633743     16.80218       5.3903245    
   4805000   1.0238237      17.034055      5.4062419    
   4806000   1.0186352      16.691717      5.3924376    
   4807000   0.98226726     16.225647      5.4130173    
   4808000   1.0293909      16.73234       5.4402543    
   4809000   0.94705591     16.974125      5.3934091    
   4810000   1.0160621      16.322708      5.3820086    
   4811000   0.97747738     16.685888      5.3991582    
   4812000   0.97294235     16.669551      5.3870548    
   4813000   1.0090878      16.412406      5.3908206    
   4814000   0.98525118     16.462001      5.3792555    
   4815000   1.0023021      16.662246      5.4411962    
   4816000   0.96571126     16.822617      5.4333447    
   4817000   1.0466713      16.569308      5.4098545    
   4818000   0.99583374     16.628885      5.3949656    
   4819000   1.0114677      16.373041      5.4204846    
   4820000   0.99451898     16.806598      5.3942416    
   4821000   1.021894       16.806291      5.392505     
   4822000   1.0105455      17.163457      5.3895655    
   4823000   0.97269592     16.328007      5.4158576    
   4824000   0.98596154     16.863799      5.3897719    
   4825000   0.99356808     17.110329      5.3869801    
   4826000   0.99528862     17.070099      5.3526705    
   4827000   0.97287251     16.538971      5.3738866    
   4828000   1.0497972      17.083765      5.4051093    
   4829000   0.98621641     16.855968      5.3541651    
   4830000   1.0071019      17.262679      5.367963     
   4831000   0.99920902     16.596318      5.3730457    
   4832000   0.99169329     16.680584      5.395529     
   4833000   0.98314784     16.703571      5.3652367    
   4834000   1.005719       16.557121      5.389761     
   4835000   0.97400632     16.728716      5.3904851    
   4836000   0.98433987     16.611074      5.3859802    
   4837000   0.97236053     16.205915      5.4066995    
   4838000   1.0043752      16.403976      5.4319598    
   4839000   1.0117836      17.250159      5.4207241    
   4840000   0.95238871     17.132393      5.4117661    
   4841000   0.98210988     16.955692      5.4671275    
   4842000   1.0011205      16.390407      5.5104245    
   4843000   0.97348523     16.187154      5.4637521    
   4844000   0.97330165     16.351709      5.4160612    
   4845000   0.97732506     16.961097      5.3892275    
   4846000   0.99851779     17.126992      5.3895629    
   4847000   0.99553743     16.741812      5.3573636    
   4848000   0.97934052     16.863273      5.3896413    
   4849000   1.0006189      16.870093      5.3607627    
   4850000   1.0369337      17.381197      5.401071     
   4851000   1.0409959      17.260219      5.3563935    
   4852000   1.0016548      16.753063      5.3696761    
   4853000   0.98310304     16.354833      5.3947074    
   4854000   1.0077407      17.505159      5.3596701    
   4855000   1.0172058      16.72449       5.3817514    
   4856000   1.0421041      16.463936      5.407127     
   4857000   0.95676482     16.671331      5.4160704    
   4858000   1.0148706      16.424792      5.434807     
   4859000   1.0138829      16.939429      5.3851151    
   4860000   1.039587       17.116943      5.401037     
   4861000   1.0133954      16.435477      5.446485     
   4862000   1.0115961      16.534019      5.3953438    
   4863000   1.048297       16.785947      5.3754119    
   4864000   0.98179772     16.88586       5.3389267    
   4865000   0.96550532     16.542659      5.3776212    
   4866000   0.96862643     16.861027      5.3996058    
   4867000   0.99497839     16.446998      5.4078144    
   4868000   1.0289937      16.490512      5.3534295    
   4869000   1.0513563      16.521325      5.3624043    
   4870000   1.017772       16.562782      5.4076385    
   4871000   1.0103772      16.690984      5.4376349    
   4872000   1.0309033      16.684025      5.4171296    
   4873000   0.98027979     16.705345      5.3956436    
   4874000   1.0252953      17.441725      5.4141422    
   4875000   1.0026143      16.603176      5.3890419    
   4876000   1.0215521      17.203798      5.3577573    
   4877000   1.0095317      16.919838      5.330882     
   4878000   0.99463584     16.897295      5.3719999    
   4879000   0.98600088     16.926952      5.3695624    
   4880000   1.0095434      16.580816      5.3982566    
   4881000   1.0005325      16.148145      5.4044883    
   4882000   0.98885852     17.061242      5.3654211    
   4883000   1.0320607      16.208939      5.4026387    
   4884000   0.98269198     16.585447      5.4208617    
   4885000   1.0013093      17.165647      5.39863      
   4886000   0.95800969     16.711879      5.3967165    
   4887000   0.99973318     16.610994      5.3900321    
   4888000   0.98952041     16.707156      5.4205227    
   4889000   1.0225214      16.347674      5.3898997    
   4890000   0.99702809     16.60124       5.3928569    
   4891000   1.0091626      16.732826      5.4004342    
   4892000   1.0020127      17.063288      5.3764014    
   4893000   1.0068796      16.636089      5.397442     
   4894000   0.9927676      16.955922      5.3858885    
   4895000   1.0292993      16.907998      5.391925     
   4896000   0.99245785     16.599359      5.4048488    
   4897000   1.0242156      17.1043        5.3888243    
   4898000   1.0420645      16.687043      5.3931024    
   4899000   1.0143262      17.31572       5.3845352    
   4900000   0.97856445     16.478647      5.4024666    
   4901000   0.9983638      16.862929      5.3625783    
   4902000   1.0000345      16.810805      5.3790371    
   4903000   1.0244756      17.002484      5.3630161    
   4904000   1.0234202      17.282162      5.3739091    
   4905000   0.9726825      16.276168      5.3731639    
   4906000   1.0203805      17.293864      5.3734238    
   4907000   0.99630287     16.953901      5.362537     
   4908000   0.97795381     16.821001      5.381911     
   4909000   1.0265585      16.7856        5.4231819    
   4910000   0.97707557     16.244843      5.3865972    
   4911000   0.97904452     16.865538      5.3948753    
   4912000   0.99012192     16.592721      5.397422     
   4913000   1.0234318      16.892693      5.3706997    
   4914000   1.021556       16.909549      5.3798352    
   4915000   0.96456939     16.887579      5.3872162    
   4916000   0.99279754     16.575068      5.3654652    
   4917000   1.004266       16.876959      5.3678614    
   4918000   0.95509588     17.164915      5.3649361    
   4919000   0.98588067     16.082973      5.3589068    
   4920000   1.0477018      16.920595      5.3807696    
   4921000   0.98464158     16.478395      5.3878974    
   4922000   1.0080317      16.84899       5.3532187    
   4923000   1.0210366      16.265899      5.3649189    
   4924000   0.9992036      17.464806      5.3553298    
   4925000   1.0389982      16.293814      5.4012158    
   4926000   0.98870994     16.775746      5.3667123    
   4927000   0.99770865     16.162467      5.3684928    
   4928000   0.95752658     16.797296      5.3925855    
   4929000   0.99331067     17.541678      5.3935535    
   4930000   1.036228       16.876619      5.4045616    
   4931000   1.0211978      17.145664      5.3774469    
   4932000   1.0061016      16.348136      5.3496302    
   4933000   0.97222055     17.219761      5.3826797    
   4934000   1.0141584      16.720496      5.3972135    
   4935000   0.99012387     16.706295      5.3843406    
   4936000   0.96023787     16.280976      5.4064218    
   4937000   1.0035463      16.389732      5.4202462    
   4938000   1.0055969      17.195494      5.390338     
   4939000   0.99752069     16.373691      5.3943479    
   4940000   1.0282082      16.976361      5.3865221    
   4941000   1.0182977      17.378977      5.4062207    
   4942000   0.9830788      16.969126      5.3965524    
   4943000   0.9590413      16.851919      5.3678553    
   4944000   0.9895095      16.44888       5.4232254    
   4945000   1.0044941      16.85542       5.40945      
   4946000   0.95062392     16.389773      5.3919211    
   4947000   0.95656772     16.786224      5.39091      
   4948000   1.0059         16.681023      5.428844     
   4949000   1.012406       17.11608       5.4141686    
   4950000   0.97694942     16.709491      5.4509218    
   4951000   0.98761045     16.616944      5.3994439    
   4952000   0.94554182     16.328046      5.4001673    
   4953000   1.0164986      16.260983      5.410883     
   4954000   0.93485573     16.508554      5.3988482    
   4955000   0.98294358     16.724552      5.3997881    
   4956000   1.0175471      17.320677      5.3593861    
   4957000   0.98626027     16.66719       5.3888247    
   4958000   0.98146352     16.870279      5.4011971    
   4959000   1.0511534      16.950734      5.347207     
   4960000   0.998696       16.86867       5.400076     
   4961000   0.96727572     16.47733       5.3677247    
   4962000   0.98535086     16.941932      5.3850814    
   4963000   0.97165457     16.919584      5.4330387    
   4964000   0.93689191     16.387501      5.4093326    
   4965000   0.98923134     17.013532      5.3832337    
   4966000   1.0169913      16.503732      5.384651     
   4967000   1.00382        16.337384      5.3846251    
   4968000   0.98384457     16.751442      5.3657295    
   4969000   1.0337223      17.088095      5.388198     
   4970000   0.97250781     16.987977      5.399172     
   4971000   0.99611488     16.582869      5.4000241    
   4972000   1.0217808      16.688958      5.3974658    
   4973000   1.0113189      16.985266      5.427924     
   4974000   0.99166917     16.306784      5.4013822    
   4975000   1.0169662      16.670086      5.4262397    
   4976000   1.0213458      17.02372       5.4478072    
   4977000   1.0534666      17.512332      5.4288886    
   4978000   0.99555958     16.876198      5.3880941    
   4979000   0.99645128     16.254592      5.4360155    
   4980000   0.97519485     16.490447      5.3818872    
   4981000   1.0455674      16.796221      5.3922307    
   4982000   0.99856117     17.083411      5.3829771    
   4983000   0.98207186     15.934177      5.3961076    
   4984000   0.97149818     16.207567      5.39883      
   4985000   0.97825608     17.167281      5.3889069    
   4986000   0.9998071      16.952271      5.36719      
   4987000   0.97615235     17.168731      5.3933363    
   4988000   1.0065217      16.688515      5.3856326    
   4989000   1.0144536      16.567124      5.4315786    
   4990000   0.97470868     16.807225      5.4032632    
   4991000   1.0068636      17.377861      5.3860592    
   4992000   0.99127049     16.297533      5.4056514    
   4993000   1.0264283      17.418576      5.3709686    
   4994000   0.98195544     16.644013      5.3935905    
   4995000   1.0048683      16.707071      5.3665375    
   4996000   1.0030358      16.504681      5.4237479    
   4997000   1.0038105      16.550534      5.3735453    
   4998000   1.0143967      15.947316      5.3783233    
   4999000   1.0023046      16.767369      5.3892801    
   5000000   0.95769913     16.794668      5.3858157    
   5001000   0.96978195     16.465598      5.3662734    
   5002000   1.0004142      16.315464      5.3643797    
   5003000   0.98928648     16.956841      5.3797976    
   5004000   1.0138372      16.259716      5.4116685    
   5005000   0.98333335     17.046393      5.3701829    
   5006000   1.0178989      16.536535      5.3720815    
   5007000   1.0047675      16.892646      5.4111068    
   5008000   0.99816357     16.364104      5.4053333    
   5009000   1.0503755      17.025511      5.3889998    
   5010000   1.0150772      16.472849      5.4062583    
   5011000   1.0058109      16.444556      5.3785926    
   5012000   1.0491623      17.261184      5.3824025    
   5013000   0.97935406     16.76709       5.3671788    
   5014000   0.97710224     16.252842      5.384456     
   5015000   0.97401012     16.118895      5.3564416    
   5016000   0.99718259     16.480489      5.3787681    
   5017000   1.0186002      17.113178      5.3833879    
   5018000   1.0025035      16.766996      5.3625053    
   5019000   0.99437957     16.787771      5.3931863    
   5020000   1.0199755      16.710518      5.4015464    
   5021000   0.99335594     15.970769      5.3681163    
   5022000   1.0050805      16.480784      5.3684625    
   5023000   0.9614904      16.441889      5.359202     
   5024000   0.98148917     16.693604      5.3633441    
   5025000   0.97812495     17.350872      5.3325247    
   5026000   0.97018479     17.005125      5.3771839    
   5027000   0.99063966     16.757871      5.3779763    
   5028000   1.0287471      16.971198      5.3628906    
   5029000   1.0258852      16.94455       5.3599169    
   5030000   1.0155129      16.788797      5.3609798    
   5031000   1.0202797      16.982926      5.3466914    
   5032000   0.98538288     16.807147      5.3794464    
   5033000   1.0314178      16.265156      5.3929413    
   5034000   0.99726547     17.099514      5.3666836    
   5035000   1.0234472      16.760951      5.4295945    
   5036000   1.0110661      16.791085      5.3953906    
   5037000   0.98546323     16.904278      5.4186938    
   5038000   0.97786761     16.500437      5.4248435    
   5039000   1.0119824      16.611868      5.3917832    
   5040000   1.0324718      17.403357      5.4024594    
   5041000   0.951761       16.635203      5.4166713    
   5042000   0.98987756     16.688156      5.420473     
   5043000   0.97778304     16.54745       5.4396923    
   5044000   1.0066841      16.391809      5.4136678    
   5045000   0.95349958     16.391866      5.4451594    
   5046000   0.98441053     17.392544      5.3698945    
   5047000   0.98379128     16.845029      5.3667014    
   5048000   1.0080495      16.744736      5.4092206    
   5049000   1.0073128      16.92768       5.4168853    
   5050000   1.0074479      16.685876      5.4239198    
   5051000   0.9829982      16.639438      5.4311667    
   5052000   0.96592509     16.667202      5.400119     
   5053000   0.99837793     16.576173      5.3933818    
   5054000   0.96848558     16.331536      5.4246643    
   5055000   0.99649648     16.691858      5.460325     
   5056000   0.98853499     16.763174      5.4126281    
   5057000   1.0015315      16.857223      5.3931629    
   5058000   0.99702504     16.527181      5.3850525    
   5059000   0.98318853     16.674004      5.3628754    
   5060000   0.96574943     16.684705      5.3858686    
   5061000   0.97564933     17.010127      5.4088864    
   5062000   1.018424       16.85382       5.3877066    
   5063000   0.99851899     16.74219       5.3582249    
   5064000   0.98518171     16.610343      5.384447     
   5065000   0.98344669     16.567823      5.4049365    
   5066000   0.99132776     17.652152      5.4115855    
   5067000   1.0077585      16.753866      5.3863447    
   5068000   1.001844       16.901492      5.3980019    
   5069000   1.05162        16.698285      5.3576126    
   5070000   1.0066141      16.708583      5.4136929    
   5071000   1.0124567      16.43832       5.3926916    
   5072000   1.0138924      16.470988      5.3835169    
   5073000   0.97344013     16.840435      5.3718209    
   5074000   1.0234878      17.113978      5.4064522    
   5075000   0.97779988     16.476609      5.4170456    
   5076000   0.99554309     16.757377      5.3946257    
   5077000   0.99260835     17.110549      5.37717      
   5078000   1.0135998      17.183451      5.3858686    
   5079000   1.0802611      16.783415      5.4171901    
   5080000   0.98430456     16.591661      5.4232441    
   5081000   1.0265909      16.433168      5.4230118    
   5082000   0.9828867      16.997494      5.4535875    
   5083000   0.98933407     16.405219      5.4744606    
   5084000   0.9664585      16.766849      5.4061401    
   5085000   1.008371       17.253787      5.4161791    
   5086000   0.99772277     16.578702      5.3908197    
   5087000   0.99275281     17.165834      5.3605045    
   5088000   0.98798362     16.480456      5.3916612    
   5089000   0.96901481     16.212371      5.382851     
   5090000   1.0126653      16.856584      5.3858736    
   5091000   1.0326863      17.264017      5.3666393    
   5092000   1.0009158      16.536546      5.3522163    
   5093000   1.0028069      16.40848       5.3727937    
   5094000   0.96512336     16.657523      5.3726708    
   5095000   1.0058741      16.895771      5.359822     
   5096000   1.0191439      17.23379       5.3440507    
   5097000   1.0086082      16.781638      5.3520361    
   5098000   1.0073751      16.890774      5.3754586    
   5099000   0.95971345     16.628571      5.3618687    
   5100000   1.000248       16.83998       5.3621481    
Loop time of 47618.1 on 1 procs for 5000000 steps with 1201 atoms

Performance: 90721.803 tau/day, 105.002 timesteps/s
173.8% CPU use with 1 MPI tasks x 1 OpenMP threads

MPI task timing breakdown:
Section |  min time  |  avg time  |  max time  |%varavg| %total
---------------------------------------------------------------
Pair    | 43336      | 43336      | 43336      |   0.0 | 91.01
Bond    | 272.42     | 272.42     | 272.42     |   0.0 |  0.57
Neigh   | 3655.9     | 3655.9     | 3655.9     |   0.0 |  7.68
Comm    | 3.0027     | 3.0027     | 3.0027     |   0.0 |  0.01
Output  | 15.104     | 15.104     | 15.104     |   0.0 |  0.03
Modify  | 299.18     | 299.18     | 299.18     |   0.0 |  0.63
Other   |            | 36.32      |            |       |  0.08

Nlocal:           1201 ave        1201 max        1201 min
Histogram: 1 0 0 0 0 0 0 0 0 0
Nghost:              0 ave           0 max           0 min
Histogram: 1 0 0 0 0 0 0 0 0 0
Neighs:         345533 ave      345533 max      345533 min
Histogram: 1 0 0 0 0 0 0 0 0 0

Total # of neighbors = 345533
Ave neighs/atom = 287.70441
Ave special neighs/atom = 1.9983347
Neighbor list builds = 35317
Dangerous builds = 0

# This simulation is done
# Move onto the next one
clear
OMP_NUM_THREADS environment is not set. Defaulting to 1 thread. (src/comm.cpp:98)
  using 1 OpenMP thread(s) per MPI task
next f
jump SELF

Total wall time: 22:21:59
