ITEM: TIMESTEP
0
ITEM: NUMBER OF ATOMS
401
ITEM: BOX BOUNDS pp pp pp
-1.0000000000000000e+03 1.0000000000000000e+03
-1.0000000000000000e+03 1.0000000000000000e+03
-1.0000000000000000e+03 1.0000000000000000e+03
ITEM: ATOMS id x y z ix iy iz
1 0.00000 0.00000 0.00000 0 0 0
2 0.00000 0.00000 1.00000 0 0 0
3 0.00000 -0.50000 1.86603 0 0 0
4 0.00000 0.00000 2.73205 0 0 0
5 0.00000 -0.50000 3.59808 0 0 0
6 0.00000 0.00000 4.46410 0 0 0
7 0.00000 -0.50000 5.33013 0 0 0
8 0.00000 0.00000 6.19615 0 0 0
9 0.00000 -0.50000 7.06218 0 0 0
10 0.00000 0.00000 7.92820 0 0 0
11 0.00000 -0.50000 8.79423 0 0 0
12 0.00000 0.00000 9.66025 0 0 0
13 0.00000 -0.50000 10.52628 0 0 0
14 0.00000 0.00000 11.39230 0 0 0
15 0.00000 -0.50000 12.25833 0 0 0
16 0.00000 0.00000 13.12436 0 0 0
17 0.00000 -0.50000 13.99038 0 0 0
18 0.00000 0.00000 14.85641 0 0 0
19 0.00000 -0.50000 15.72243 0 0 0
20 0.00000 0.00000 16.58846 0 0 0
21 0.00000 -0.50000 17.45448 0 0 0
22 0.00000 0.00000 18.32051 0 0 0
23 0.00000 -0.50000 19.18653 0 0 0
24 0.00000 0.00000 20.05256 0 0 0
25 0.00000 -0.50000 20.91858 0 0 0
26 0.00000 0.00000 21.78461 0 0 0
27 -0.33120 0.93121 21.63243 0 0 0
28 -0.66241 1.81374 21.96623 0 0 0
29 -0.99361 2.54410 21.36883 0 0 0
30 -1.32482 3.42664 21.70264 0 0 0
31 -1.65602 4.15699 21.10524 0 0 0
32 -1.98723 5.03953 21.43905 0 0 0
33 -2.31843 5.76989 20.84165 0 0 0
34 -2.64964 6.65243 21.17546 0 0 0
35 -2.98084 7.38278 20.57806 0 0 0
36 -3.31205 8.26532 20.91187 0 0 0
37 -3.64325 8.99568 20.31447 0 0 0
38 -3.97446 9.87822 20.64827 0 0 0
39 -4.30566 10.60857 20.05088 0 0 0
40 -4.63687 11.49111 20.38468 0 0 0
41 -4.96807 12.22147 19.78728 0 0 0
42 -5.29928 13.10401 20.12109 0 0 0
43 -5.63048 13.83436 19.52369 0 0 0
44 -5.96169 14.71690 19.85750 0 0 0
45 -6.29289 15.44726 19.26010 0 0 0
46 -6.62410 16.32980 19.59391 0 0 0
47 -6.95530 17.06015 18.99651 0 0 0
48 -7.28651 17.94269 19.33032 0 0 0
49 -7.61771 18.67305 18.73292 0 0 0
50 -7.94892 19.55559 19.06673 0 0 0
51 -8.28012 20.28594 18.46933 0 0 0
52 0.92990 0.03316 22.15091 0 0 0
53 1.85981 -0.12128 22.48472 0 0 0
54 2.78971 0.09058 22.78537 0 0 0
55 3.71962 -0.06385 23.11918 0 0 0
56 4.64952 0.14801 23.41983 0 0 0
57 5.57943 -0.00643 23.75364 0 0 0
58 6.50933 0.20544 24.05429 0 0 0
59 7.43923 0.05100 24.38809 0 0 0
60 8.36914 0.26287 24.68874 0 0 0
61 9.29904 0.10843 25.02255 0 0 0
62 10.22895 0.32030 25.32320 0 0 0
63 11.15885 0.16586 25.65701 0 0 0
64 12.08875 0.37773 25.95766 0 0 0
65 13.01866 0.22329 26.29147 0 0 0
66 13.94856 0.43515 26.59212 0 0 0
67 14.87847 0.28072 26.92592 0 0 0
68 15.80837 0.49258 27.22657 0 0 0
69 16.73828 0.33814 27.56038 0 0 0
70 17.66818 0.55001 27.86103 0 0 0
71 18.59808 0.39557 28.19484 0 0 0
72 19.52799 0.60744 28.49549 0 0 0
73 20.45789 0.45300 28.82930 0 0 0
74 21.38780 0.66487 29.12995 0 0 0
75 22.31770 0.51043 29.46375 0 0 0
76 23.24761 0.72229 29.76440 0 0 0
77 -0.59870 -0.46365 22.43775 0 0 0
78 -1.19740 -1.19175 22.77155 0 0 0
79 -1.79610 -1.26672 23.56901 0 0 0
80 -2.39480 -1.99482 23.90282 0 0 0
81 -2.99350 -2.06979 24.70028 0 0 0
82 -3.59220 -2.79789 25.03408 0 0 0
83 -4.19090 -2.87285 25.83154 0 0 0
84 -4.78959 -3.60095 26.16535 0 0 0
85 -5.38829 -3.67592 26.96281 0 0 0
86 -5.98699 -4.40402 27.29661 0 0 0
87 -6.58569 -4.47899 28.09407 0 0 0
88 -7.18439 -5.20709 28.42788 0 0 0
89 -7.78309 -5.28205 29.22533 0 0 0
90 -8.38179 -6.01016 29.55914 0 0 0
91 -8.98049 -6.08512 30.35660 0 0 0
92 -9.57919 -6.81322 30.69041 0 0 0
93 -10.17789 -6.88819 31.48786 0 0 0
94 -10.77659 -7.61629 31.82167 0 0 0
95 -11.37529 -7.69126 32.61913 0 0 0
96 -11.97399 -8.41936 32.95294 0 0 0
97 -12.57269 -8.49432 33.75039 0 0 0
98 -13.17139 -9.22243 34.08420 0 0 0
99 -13.77009 -9.29739 34.88166 0 0 0
100 -14.36878 -10.02549 35.21547 0 0 0
101 -14.96748 -10.10046 36.01292 0 0 0
102 -14.85451 -11.00153 36.43163 0 0 0
103 -14.74153 -11.99123 36.34370 0 0 0
104 -14.62855 -12.56222 37.15684 0 0 0
105 -14.51557 -13.55192 37.06892 0 0 0
106 -14.40259 -14.12292 37.88206 0 0 0
107 -14.28961 -15.11262 37.79413 0 0 0
108 -14.17663 -15.68361 38.60727 0 0 0
109 -14.06365 -16.67331 38.51935 0 0 0
110 -13.95067 -17.24431 39.33249 0 0 0
111 -13.83769 -18.23401 39.24456 0 0 0
112 -13.72471 -18.80500 40.05770 0 0 0
113 -13.61173 -19.79470 39.96978 0 0 0
114 -13.49875 -20.36570 40.78292 0 0 0
115 -13.38577 -21.35540 40.69499 0 0 0
116 -13.27280 -21.92639 41.50814 0 0 0
117 -13.15982 -22.91609 41.42021 0 0 0
118 -13.04684 -23.48709 42.23335 0 0 0
119 -12.93386 -24.47679 42.14543 0 0 0
120 -12.82088 -25.04778 42.95857 0 0 0
121 -12.70790 -26.03748 42.87064 0 0 0
122 -12.59492 -26.60848 43.68378 0 0 0
123 -12.48194 -27.59818 43.59586 0 0 0
124 -12.36896 -28.16917 44.40900 0 0 0
125 -12.25598 -29.15887 44.32107 0 0 0
126 -12.14300 -29.72987 45.13421 0 0 0
127 -15.91886 -9.98258 35.72834 0 0 0
128 -16.87024 -9.73820 35.54082 0 0 0
129 -17.82161 -9.77841 35.23542 0 0 0
130 -18.77299 -9.53403 35.04791 0 0 0
131 -19.72436 -9.57423 34.74251 0 0 0
132 -20.67574 -9.32986 34.55499 0 0 0
133 -21.62712 -9.37006 34.24959 0 0 0
134 -22.57849 -9.12568 34.06208 0 0 0
135 -23.52987 -9.16589 33.75668 0 0 0
136 -24.48124 -8.92151 33.56916 0 0 0
137 -25.43262 -8.96172 33.26376 0 0 0
138 -26.38399 -8.71734 33.07624 0 0 0
139 -27.33537 -8.75754 32.77085 0 0 0
140 -28.28675 -8.51316 32.58333 0 0 0
141 -29.23812 -8.55337 32.27793 0 0 0
142 -30.18950 -8.30899 32.09041 0 0 0
143 -31.14087 -8.34920 31.78502 0 0 0
144 -32.09225 -8.10482 31.59750 0 0 0
145 -33.04363 -8.14502 31.29210 0 0 0
146 -33.99500 -7.90065 31.10458 0 0 0
147 -34.94638 -7.94085 30.79919 0 0 0
148 -35.89775 -7.69647 30.61167 0 0 0
149 -36.84913 -7.73668 30.30627 0 0 0
150 -37.80050 -7.49230 30.11875 0 0 0
151 -38.75188 -7.53251 29.81336 0 0 0
152 -14.72864 -9.39234 36.67740 0 0 0
153 -14.48979 -9.11133 37.60690 0 0 0
154 -14.25094 -8.16585 37.82830 0 0 0
155 -14.01210 -7.88484 38.75780 0 0 0
156 -13.77325 -6.93935 38.97920 0 0 0
157 -13.53440 -6.65834 39.90870 0 0 0
158 -13.29556 -5.71286 40.13009 0 0 0
159 -13.05671 -5.43185 41.05960 0 0 0
160 -12.81786 -4.48637 41.28099 0 0 0
161 -12.57902 -4.20536 42.21050 0 0 0
162 -12.34017 -3.25987 42.43189 0 0 0
163 -12.10132 -2.97886 43.36140 0 0 0
164 -11.86248 -2.03338 43.58279 0 0 0
165 -11.62363 -1.75237 44.51230 0 0 0
166 -11.38478 -0.80689 44.73369 0 0 0
167 -11.14594 -0.52588 45.66320 0 0 0
168 -10.90709 0.41961 45.88459 0 0 0
169 -10.66824 0.70062 46.81410 0 0 0
170 -10.42940 1.64610 47.03549 0 0 0
171 -10.19055 1.92711 47.96500 0 0 0
172 -9.95170 2.87260 48.18639 0 0 0
173 -9.71286 3.15361 49.11590 0 0 0
174 -9.47401 4.09909 49.33729 0 0 0
175 -9.23516 4.38010 50.26680 0 0 0
176 -8.99632 5.32558 50.48819 0 0 0
177 -9.83169 5.85527 50.63510 0 0 0
178 -10.66706 6.24053 51.02718 0 0 0
179 -11.50244 6.77271 50.88957 0 0 0
180 -12.33781 7.15797 51.28164 0 0 0
181 -13.17319 7.69015 51.14403 0 0 0
182 -14.00856 8.07541 51.53610 0 0 0
183 -14.84394 8.60759 51.39849 0 0 0
184 -15.67931 8.99285 51.79056 0 0 0
185 -16.51469 9.52503 51.65295 0 0 0
186 -17.35006 9.91029 52.04503 0 0 0
187 -18.18543 10.44247 51.90742 0 0 0
188 -19.02081 10.82773 52.29949 0 0 0
189 -19.85618 11.35991 52.16188 0 0 0
190 -20.69156 11.74518 52.55395 0 0 0
191 -21.52693 12.27735 52.41634 0 0 0
192 -22.36231 12.66262 52.80841 0 0 0
193 -23.19768 13.19479 52.67080 0 0 0
194 -24.03306 13.58006 53.06288 0 0 0
195 -24.86843 14.11223 52.92526 0 0 0
196 -25.70380 14.49750 53.31734 0 0 0
197 -26.53918 15.02968 53.17973 0 0 0
198 -27.37455 15.41494 53.57180 0 0 0
199 -28.20993 15.94712 53.43419 0 0 0
200 -29.04530 16.33238 53.82626 0 0 0
201 -29.88068 16.86456 53.68865 0 0 0
202 -8.47777 5.72471 49.73201 0 0 0
203 -7.95923 6.44845 49.27670 0 0 0
204 -7.44069 6.41602 48.42226 0 0 0
205 -6.92215 7.13976 47.96695 0 0 0
206 -6.40360 7.10732 47.11251 0 0 0
207 -5.88506 7.83107 46.65720 0 0 0
208 -5.36652 7.79863 45.80277 0 0 0
209 -4.84798 8.52238 45.34746 0 0 0
210 -4.32944 8.48994 44.49302 0 0 0
211 -3.81089 9.21368 44.03771 0 0 0
212 -3.29235 9.18124 43.18327 0 0 0
213 -2.77381 9.90499 42.72796 0 0 0
214 -2.25527 9.87255 41.87353 0 0 0
215 -1.73673 10.59630 41.41822 0 0 0
216 -1.21818 10.56386 40.56378 0 0 0
217 -0.69964 11.28760 40.10847 0 0 0
218 -0.18110 11.25517 39.25403 0 0 0
219 0.33744 11.97891 38.79872 0 0 0
220 0.85599 11.94647 37.94429 0 0 0
221 1.37453 12.67022 37.48898 0 0 0
222 1.89307 12.63778 36.63454 0 0 0
223 2.41161 13.36153 36.17923 0 0 0
224 2.93015 13.32909 35.32479 0 0 0
225 3.44870 14.05283 34.86948 0 0 0
226 3.96724 14.02039 34.01505 0 0 0
227 -8.44030 5.34360 51.31917 0 0 0
228 -7.88428 4.94371 52.04782 0 0 0
229 -7.32826 5.37480 52.75846 0 0 0
230 -6.77224 4.97491 53.48711 0 0 0
231 -6.21622 5.40600 54.19775 0 0 0
232 -5.66021 5.00612 54.92640 0 0 0
233 -5.10419 5.43721 55.63704 0 0 0
234 -4.54817 5.03732 56.36569 0 0 0
235 -3.99215 5.46841 57.07633 0 0 0
236 -3.43613 5.06852 57.80498 0 0 0
237 -2.88011 5.49961 58.51562 0 0 0
238 -2.32410 5.09973 59.24427 0 0 0
239 -1.76808 5.53082 59.95491 0 0 0
240 -1.21206 5.13093 60.68356 0 0 0
241 -0.65604 5.56202 61.39420 0 0 0
242 -0.10002 5.16213 62.12285 0 0 0
243 0.45599 5.59322 62.83349 0 0 0
244 1.01201 5.19334 63.56214 0 0 0
245 1.56803 5.62442 64.27278 0 0 0
246 2.12405 5.22454 65.00143 0 0 0
247 2.68007 5.65563 65.71207 0 0 0
248 3.23609 5.25574 66.44072 0 0 0
249 3.79210 5.68683 67.15136 0 0 0
250 4.34812 5.28694 67.88001 0 0 0
251 4.90414 5.71803 68.59065 0 0 0
252 5.86053 5.73905 68.29933 0 0 0
253 6.81693 5.90291 68.05754 0 0 0
254 7.77332 5.77545 67.79474 0 0 0
255 8.72972 5.93931 67.55296 0 0 0
256 9.68611 5.81185 67.29015 0 0 0
257 10.64250 5.97572 67.04837 0 0 0
258 11.59890 5.84826 66.78557 0 0 0
259 12.55529 6.01212 66.54378 0 0 0
260 13.51168 5.88466 66.28098 0 0 0
261 14.46808 6.04852 66.03919 0 0 0
262 15.42447 5.92106 65.77639 0 0 0
263 16.38087 6.08492 65.53461 0 0 0
264 17.33726 5.95746 65.27181 0 0 0
265 18.29365 6.12132 65.03002 0 0 0
266 19.25005 5.99386 64.76722 0 0 0
267 20.20644 6.15773 64.52543 0 0 0
268 21.16283 6.03026 64.26263 0 0 0
269 22.11923 6.19413 64.02085 0 0 0
270 23.07562 6.06667 63.75804 0 0 0
271 24.03201 6.23053 63.51626 0 0 0
272 24.98841 6.10307 63.25346 0 0 0
273 25.94480 6.26693 63.01167 0 0 0
274 26.90120 6.13947 62.74887 0 0 0
275 27.85759 6.30333 62.50708 0 0 0
276 28.81398 6.17587 62.24428 0 0 0
277 4.82604 5.19450 69.43907 0 0 0
278 4.74795 4.31690 69.91206 0 0 0
279 4.66985 4.28772 70.90858 0 0 0
280 4.59175 3.41012 71.38157 0 0 0
281 4.51365 3.38094 72.37808 0 0 0
282 4.43556 2.50334 72.85107 0 0 0
283 4.35746 2.47415 73.84759 0 0 0
284 4.27936 1.59655 74.32058 0 0 0
285 4.20126 1.56737 75.31710 0 0 0
286 4.12317 0.68977 75.79008 0 0 0
287 4.04507 0.66059 76.78660 0 0 0
288 3.96697 -0.21701 77.25959 0 0 0
289 3.88887 -0.24619 78.25611 0 0 0
290 3.81078 -1.12380 78.72909 0 0 0
291 3.73268 -1.15298 79.72561 0 0 0
292 3.65458 -2.03058 80.19860 0 0 0
293 3.57648 -2.05976 81.19512 0 0 0
294 3.49839 -2.93736 81.66811 0 0 0
295 3.42029 -2.96654 82.66462 0 0 0
296 3.34219 -3.84414 83.13761 0 0 0
297 3.26409 -3.87333 84.13413 0 0 0
298 3.18600 -4.75093 84.60712 0 0 0
299 3.10790 -4.78011 85.60364 0 0 0
300 3.02980 -5.65771 86.07662 0 0 0
301 2.95170 -5.68689 87.07314 0 0 0
302 4.58265 6.65225 68.74520 0 0 0
303 4.26117 7.38403 69.34616 0 0 0
304 3.93968 8.27036 69.01289 0 0 0
305 3.61819 9.00214 69.61385 0 0 0
306 3.29670 9.88847 69.28059 0 0 0
307 2.97521 10.62025 69.88154 0 0 0
308 2.65373 11.50658 69.54828 0 0 0
309 2.33224 12.23836 70.14923 0 0 0
310 2.01075 13.12469 69.81597 0 0 0
311 1.68926 13.85647 70.41692 0 0 0
312 1.36777 14.74280 70.08366 0 0 0
313 1.04629 15.47458 70.68461 0 0 0
314 0.72480 16.36091 70.35135 0 0 0
315 0.40331 17.09268 70.95230 0 0 0
316 0.08182 17.97902 70.61904 0 0 0
317 -0.23967 18.71079 71.21999 0 0 0
318 -0.56116 19.59712 70.88673 0 0 0
319 -0.88264 20.32890 71.48768 0 0 0
320 -1.20413 21.21523 71.15442 0 0 0
321 -1.52562 21.94701 71.75537 0 0 0
322 -1.84711 22.83334 71.42211 0 0 0
323 -2.16860 23.56512 72.02306 0 0 0
324 -2.49008 24.45145 71.68980 0 0 0
325 -2.81157 25.18323 72.29075 0 0 0
326 -3.13306 26.06956 71.95749 0 0 0
327 -3.04882 26.10227 70.96158 0 0 0
328 -2.96459 26.62855 70.11545 0 0 0
329 -2.88036 26.15892 69.23662 0 0 0
330 -2.79612 26.68519 68.39049 0 0 0
331 -2.71189 26.21556 67.51165 0 0 0
332 -2.62765 26.74184 66.66552 0 0 0
333 -2.54342 26.27221 65.78669 0 0 0
334 -2.45919 26.79849 64.94056 0 0 0
335 -2.37495 26.32886 64.06172 0 0 0
336 -2.29072 26.85514 63.21559 0 0 0
337 -2.20648 26.38551 62.33676 0 0 0
338 -2.12225 26.91178 61.49063 0 0 0
339 -2.03801 26.44215 60.61179 0 0 0
340 -1.95378 26.96843 59.76566 0 0 0
341 -1.86955 26.49880 58.88683 0 0 0
342 -1.78531 27.02508 58.04070 0 0 0
343 -1.70108 26.55545 57.16186 0 0 0
344 -1.61684 27.08173 56.31573 0 0 0
345 -1.53261 26.61210 55.43690 0 0 0
346 -1.44837 27.13837 54.59077 0 0 0
347 -1.36414 26.66874 53.71193 0 0 0
348 -1.27991 27.19502 52.86580 0 0 0
349 -1.19567 26.72539 51.98697 0 0 0
350 -1.11144 27.25167 51.14084 0 0 0
351 -1.02720 26.78204 50.26200 0 0 0
352 -2.58114 26.79859 72.36234 0 0 0
353 -2.02923 27.22753 73.07747 0 0 0
354 -1.47731 28.06131 73.06356 0 0 0
355 -0.92540 28.49025 73.77869 0 0 0
356 -0.37348 29.32403 73.76478 0 0 0
357 0.17844 29.75297 74.47991 0 0 0
358 0.73035 30.58675 74.46600 0 0 0
359 1.28227 31.01568 75.18112 0 0 0
360 1.83418 31.84947 75.16722 0 0 0
361 2.38610 32.27840 75.88234 0 0 0
362 2.93801 33.11219 75.86844 0 0 0
363 3.48993 33.54112 76.58356 0 0 0
364 4.04185 34.37491 76.56966 0 0 0
365 4.59376 34.80384 77.28478 0 0 0
366 5.14568 35.63762 77.27088 0 0 0
367 5.69759 36.06656 77.98600 0 0 0
368 6.24951 36.90034 77.97210 0 0 0
369 6.80142 37.32928 78.68722 0 0 0
370 7.35334 38.16306 78.67332 0 0 0
371 7.90526 38.59200 79.38844 0 0 0
372 8.45717 39.42578 79.37453 0 0 0
373 9.00909 39.85471 80.08966 0 0 0
374 9.56100 40.68850 80.07575 0 0 0
375 10.11292 41.11743 80.79088 0 0 0
376 10.66483 41.95122 80.77697 0 0 0
377 -4.09115 26.19542 72.21482 0 0 0
378 -5.04925 26.17575 72.50059 0 0 0
379 -6.00734 26.41340 72.66051 0 0 0
380 -6.96544 26.39373 72.94629 0 0 0
381 -7.92353 26.63138 73.10621 0 0 0
382 -8.88163 26.61171 73.39199 0 0 0
383 -9.83972 26.84937 73.55191 0 0 0
384 -10.79782 26.82970 73.83769 0 0 0
385 -11.75591 27.06735 73.99761 0 0 0
386 -12.71401 27.04768 74.28338 0 0 0
387 -13.67210 27.28533 74.44331 0 0 0
388 -14.63020 27.26566 74.72908 0 0 0
389 -15.58829 27.50332 74.88900 0 0 0
390 -16.54638 27.48365 75.17478 0 0 0
391 -17.50448 27.72130 75.33470 0 0 0
392 -18.46257 27.70163 75.62048 0 0 0
393 -19.42067 27.93929 75.78040 0 0 0
394 -20.37876 27.91962 76.06618 0 0 0
395 -21.33686 28.15727 76.22610 0 0 0
396 -22.29495 28.13760 76.51187 0 0 0
397 -23.25305 28.37525 76.67180 0 0 0
398 -24.21114 28.35558 76.95757 0 0 0
399 -25.16924 28.59324 77.11749 0 0 0
400 -26.12733 28.57357 77.40327 0 0 0
401 -27.08543 28.81122 77.56319 0 0 0
ITEM: TIMESTEP
1000
ITEM: NUMBER OF ATOMS
401
ITEM: BOX BOUNDS pp pp pp
-1.0000000000000000e+03 1.0000000000000000e+03
-1.0000000000000000e+03 1.0000000000000000e+03
-1.0000000000000000e+03 1.0000000000000000e+03
ITEM: ATOMS id x y z ix iy iz
1 0.68701 1.21276 3.85350 0 0 0
2 0.73497 0.47091 4.60126 0 0 0
3 0.76691 0.40442 5.57846 0 0 0
4 -0.01748 0.13852 6.14799 0 0 0
5 0.38161 0.71465 6.92218 0 0 0
6 1.27346 0.48009 7.40794 0 0 0
7 0.81982 -0.05763 8.07728 0 0 0
8 0.77486 -0.26720 9.04135 0 0 0
9 0.16479 0.16195 9.54895 0 0 0
10 0.49509 1.06586 9.97440 0 0 0
11 1.20641 0.55806 10.52424 0 0 0
12 1.34416 0.18991 11.37002 0 0 0
13 1.10361 -0.34592 12.16072 0 0 0
14 0.75022 0.51587 12.26667 0 0 0
15 0.31492 0.67834 13.18243 0 0 0
16 0.62554 1.40989 13.76575 0 0 0
17 0.98614 1.12409 14.70260 0 0 0
18 0.57500 1.17058 15.57029 0 0 0
19 0.32063 0.82902 16.49087 0 0 0
20 0.17096 0.71778 17.54445 0 0 0
21 0.40683 0.70192 18.49623 0 0 0
22 0.47512 0.67441 19.46040 0 0 0
23 0.56075 0.36509 20.40795 0 0 0
24 0.36480 -0.61482 20.49731 0 0 0
25 -0.12052 -0.45297 21.36995 0 0 0
26 -0.53586 -0.09402 22.16696 0 0 0
27 -0.93926 0.60442 22.75645 0 0 0
28 -1.08726 1.40635 23.30953 0 0 0
29 -1.38735 2.18946 22.84990 0 0 0
30 -1.08913 2.64828 22.09127 0 0 0
31 -1.70842 3.40107 22.26472 0 0 0
32 -1.85666 4.25837 21.90770 0 0 0
33 -1.62442 5.11731 21.51366 0 0 0
34 -1.70449 5.87757 20.92174 0 0 0
35 -1.60883 6.70086 20.40377 0 0 0
36 -2.13556 7.11654 21.10463 0 0 0
37 -2.76590 7.62930 21.67443 0 0 0
38 -3.58025 8.22636 21.59745 0 0 0
39 -3.77022 9.05430 21.96409 0 0 0
40 -3.97585 10.05013 22.06103 0 0 0
41 -4.23040 11.08696 22.27886 0 0 0
42 -4.80696 11.84091 22.50308 0 0 0
43 -5.15667 12.40842 21.79759 0 0 0
44 -4.66296 12.78590 21.01357 0 0 0
45 -5.11455 13.69074 20.99160 0 0 0
46 -4.59153 14.46018 21.39253 0 0 0
47 -4.22944 15.23783 20.83659 0 0 0
48 -5.11452 15.81976 20.99983 0 0 0
49 -5.58907 16.70512 21.03075 0 0 0
50 -6.30131 17.39009 20.92429 0 0 0
51 -7.00784 17.86254 21.30240 0 0 0
52 0.19397 -0.15596 22.89120 0 0 0
53 0.95006 0.25942 23.45630 0 0 0
54 1.41496 0.35224 24.36242 0 0 0
55 2.34298 0.34044 24.18401 0 0 0
56 3.30120 0.45611 24.28006 0 0 0
57 3.76567 -0.49863 24.13118 0 0 0
58 4.61240 -0.43549 24.56830 0 0 0
59 5.63593 -0.52535 24.54046 0 0 0
60 6.41302 -0.07155 24.18176 0 0 0
61 7.20975 0.33017 24.56437 0 0 0
62 7.66411 0.02382 23.73372 0 0 0
63 8.70035 0.05093 23.73608 0 0 0
64 9.55859 -0.33437 23.54605 0 0 0
65 10.37078 -0.35064 24.19486 0 0 0
66 11.06744 -0.14827 24.93178 0 0 0
67 11.93876 0.25954 25.20826 0 0 0
68 12.78830 0.03917 24.78806 0 0 0
69 13.46740 0.68903 24.90697 0 0 0
70 14.38226 0.97324 25.16163 0 0 0
71 14.65691 0.52092 24.32859 0 0 0
72 14.58681 -0.42619 24.76373 0 0 0
73 15.31544 -0.26857 25.36702 0 0 0
74 16.19562 -0.60204 25.42228 0 0 0
75 16.77420 -0.68301 26.21724 0 0 0
76 16.93638 0.32630 26.20993 0 0 0
77 -1.42082 -0.32554 22.33883 0 0 0
78 -2.22118 -0.42447 22.84531 0 0 0
79 -3.18635 -0.40141 22.81725 0 0 0
80 -3.53511 -1.11111 23.44276 0 0 0
81 -3.99627 -1.31379 24.30195 0 0 0
82 -5.00103 -1.38166 24.16192 0 0 0
83 -5.85603 -1.53463 24.69077 0 0 0
84 -6.60690 -1.84475 25.30052 0 0 0
85 -7.47330 -2.20055 25.62328 0 0 0
86 -8.00705 -2.23443 26.39147 0 0 0
87 -8.37273 -2.84887 27.11885 0 0 0
88 -8.17347 -3.53435 27.85928 0 0 0
89 -8.52537 -4.29698 28.49581 0 0 0
90 -8.47115 -4.59920 29.44368 0 0 0
91 -8.91384 -4.78439 30.30497 0 0 0
92 -9.83298 -4.57170 30.01013 0 0 0
93 -10.49314 -5.27503 30.48676 0 0 0
94 -10.63404 -6.18397 30.89073 0 0 0
95 -11.35104 -6.39810 31.48104 0 0 0
96 -11.94953 -6.44885 32.28239 0 0 0
97 -12.48702 -7.16569 32.70613 0 0 0
98 -12.99559 -7.29970 33.53156 0 0 0
99 -13.55296 -7.48310 34.36666 0 0 0
100 -14.14721 -7.93754 34.99152 0 0 0
101 -14.34858 -7.90026 35.95597 0 0 0
102 -14.63308 -8.76670 36.32499 0 0 0
103 -14.75411 -9.63621 35.78204 0 0 0
104 -13.97498 -10.19698 35.85268 0 0 0
105 -13.84844 -11.09845 35.59081 0 0 0
106 -14.02080 -11.88205 36.22358 0 0 0
107 -13.80820 -12.55069 36.90519 0 0 0
108 -14.06642 -13.06762 37.82395 0 0 0
109 -14.69693 -13.79745 38.16232 0 0 0
110 -15.48944 -14.47703 37.97100 0 0 0
111 -15.80747 -15.13285 38.68042 0 0 0
112 -15.56009 -16.05969 38.63397 0 0 0
113 -15.26302 -16.88003 39.21837 0 0 0
114 -15.75160 -16.79350 40.02747 0 0 0
115 -15.82323 -17.67523 40.57025 0 0 0
116 -15.40305 -18.39006 41.05085 0 0 0
117 -15.09713 -19.32547 41.04433 0 0 0
118 -15.56465 -20.08678 41.34967 0 0 0
119 -15.76519 -21.13606 41.32488 0 0 0
120 -14.95088 -21.66212 41.57096 0 0 0
121 -15.01986 -21.59658 42.53377 0 0 0
122 -14.69280 -21.27103 43.40486 0 0 0
123 -14.62321 -21.88553 44.18019 0 0 0
124 -14.03471 -22.56123 43.81826 0 0 0
125 -14.21840 -23.15138 44.56773 0 0 0
126 -14.86333 -22.73560 45.15108 0 0 0
127 -15.11955 -7.30877 35.91286 0 0 0
128 -15.87464 -7.57568 36.40019 0 0 0
129 -16.68096 -8.10374 36.23286 0 0 0
130 -17.67700 -8.10179 35.90969 0 0 0
131 -18.60071 -8.25783 35.52329 0 0 0
132 -19.52851 -8.23292 35.35429 0 0 0
133 -20.40288 -8.25626 35.80862 0 0 0
134 -21.26001 -7.83602 36.05237 0 0 0
135 -21.81285 -7.18220 35.57167 0 0 0
136 -22.75775 -7.15174 35.06698 0 0 0
137 -23.64468 -7.23324 34.58958 0 0 0
138 -24.51923 -7.43787 34.23353 0 0 0
139 -25.09974 -7.17682 33.55284 0 0 0
140 -25.93494 -7.44605 33.31399 0 0 0
141 -26.74433 -8.15430 33.36951 0 0 0
142 -27.34960 -8.74168 33.87406 0 0 0
143 -28.18983 -9.01950 33.51046 0 0 0
144 -29.14397 -9.01979 33.27962 0 0 0
145 -29.95545 -9.58837 33.35865 0 0 0
146 -30.87412 -9.27724 33.36786 0 0 0
147 -31.33419 -9.38720 32.47626 0 0 0
148 -31.86482 -9.14080 31.75567 0 0 0
149 -32.09360 -9.54060 30.88660 0 0 0
150 -32.99284 -9.24402 31.38518 0 0 0
151 -33.69903 -9.27379 30.75498 0 0 0
152 -14.18043 -7.42813 36.76455 0 0 0
153 -14.47720 -7.59450 37.68323 0 0 0
154 -14.12493 -7.62463 38.59698 0 0 0
155 -13.91547 -6.63317 38.85102 0 0 0
156 -14.33135 -5.78681 39.23976 0 0 0
157 -13.70922 -5.39720 39.85523 0 0 0
158 -13.22817 -5.33193 40.67202 0 0 0
159 -12.55085 -4.57560 40.88330 0 0 0
160 -12.71515 -3.97130 41.62647 0 0 0
161 -12.30834 -3.84480 42.54685 0 0 0
162 -12.14578 -3.33062 43.41395 0 0 0
163 -12.49504 -2.74875 44.09787 0 0 0
164 -12.15947 -2.25763 44.89619 0 0 0
165 -12.18839 -1.20346 45.17355 0 0 0
166 -12.47110 -0.26068 45.36457 0 0 0
167 -12.51006 0.48141 45.97128 0 0 0
168 -11.86755 1.34439 46.25207 0 0 0
169 -11.67351 1.81053 47.11365 0 0 0
170 -11.04443 2.46206 47.45863 0 0 0
171 -10.75411 3.36209 47.85571 0 0 0
172 -10.07709 3.45307 48.56479 0 0 0
173 -9.26901 3.72494 49.16835 0 0 0
174 -8.69031 4.14971 49.89088 0 0 0
175 -8.34500 5.00703 50.10321 0 0 0
176 -8.46959 5.98211 50.35047 0 0 0
177 -9.06421 6.71440 50.75255 0 0 0
178 -9.84344 6.93697 51.22497 0 0 0
179 -10.69856 6.66567 51.49000 0 0 0
180 -11.55469 6.94827 51.89963 0 0 0
181 -12.55651 6.60520 51.56309 0 0 0
182 -13.43706 6.42202 51.88753 0 0 0
183 -14.45302 6.53541 51.86352 0 0 0
184 -15.32652 7.02459 52.04338 0 0 0
185 -16.13779 7.49438 52.27122 0 0 0
186 -16.92854 8.14530 52.34271 0 0 0
187 -17.83043 8.50962 52.17342 0 0 0
188 -18.33340 8.81272 52.92809 0 0 0
189 -19.01039 9.50104 53.04200 0 0 0
190 -19.98871 9.50110 52.73234 0 0 0
191 -20.95735 9.45833 52.64510 0 0 0
192 -21.83887 9.61869 53.02763 0 0 0
193 -22.62704 9.91139 53.54170 0 0 0
194 -22.77013 10.88838 53.67938 0 0 0
195 -23.74318 11.22254 53.69569 0 0 0
196 -24.48505 11.74090 54.01257 0 0 0
197 -25.43530 11.31354 54.11556 0 0 0
198 -24.99597 11.10536 53.25821 0 0 0
199 -25.10794 10.21430 52.89826 0 0 0
200 -25.42918 9.51095 53.45767 0 0 0
201 -25.89872 8.86558 52.91940 0 0 0
202 -8.17495 5.71495 49.41666 0 0 0
203 -7.85997 5.59797 48.50357 0 0 0
204 -7.41003 6.14900 47.88127 0 0 0
205 -6.85365 6.77968 47.31780 0 0 0
206 -6.13896 7.14795 46.90255 0 0 0
207 -5.37096 7.69890 46.61356 0 0 0
208 -5.49544 7.89389 45.67598 0 0 0
209 -5.07165 8.33536 44.87176 0 0 0
210 -5.43813 9.05268 44.24364 0 0 0
211 -4.58166 9.23482 43.78542 0 0 0
212 -4.09796 9.93364 44.12330 0 0 0
213 -3.57231 10.32502 43.32289 0 0 0
214 -3.00705 10.73754 42.47696 0 0 0
215 -2.95490 10.93479 41.49181 0 0 0
216 -2.43402 10.94074 40.61151 0 0 0
217 -2.92359 11.01341 39.74395 0 0 0
218 -2.23353 11.41155 39.22378 0 0 0
219 -1.62100 11.84494 38.50441 0 0 0
220 -1.73133 12.70911 38.11338 0 0 0
221 -1.07200 13.06263 37.47075 0 0 0
222 -0.51979 13.00775 36.55526 0 0 0
223 0.06804 12.67053 35.80768 0 0 0
224 0.53187 12.27392 35.04360 0 0 0
225 1.39515 11.89148 34.62189 0 0 0
226 1.47050 11.06471 34.05111 0 0 0
227 -7.87075 5.76467 51.07178 0 0 0
228 -7.08689 5.20901 51.37756 0 0 0
229 -6.91891 4.94929 52.35152 0 0 0
230 -6.52000 5.12744 53.24050 0 0 0
231 -5.81165 5.00633 53.85290 0 0 0
232 -4.94714 4.96940 54.22998 0 0 0
233 -4.03790 5.47094 54.42341 0 0 0
234 -3.33698 6.00402 54.96892 0 0 0
235 -2.55964 6.01048 55.60857 0 0 0
236 -2.65458 5.61069 56.56112 0 0 0
237 -2.57198 4.97100 57.27780 0 0 0
238 -1.86963 5.22772 57.93126 0 0 0
239 -1.39476 5.01146 58.77678 0 0 0
240 -1.16283 4.91780 59.71166 0 0 0
241 -0.39482 4.90484 60.39607 0 0 0
242 0.21112 4.45695 61.07790 0 0 0
243 1.12952 4.25492 61.60574 0 0 0
244 1.63423 4.39658 62.49425 0 0 0
245 2.23658 4.67774 63.17852 0 0 0
246 2.55557 4.41021 64.08066 0 0 0
247 2.90584 4.71757 64.91776 0 0 0
248 3.46246 4.61239 65.69783 0 0 0
249 3.84571 5.30673 66.31786 0 0 0
250 4.43848 5.21977 67.07221 0 0 0
251 5.16894 5.92310 67.10163 0 0 0
252 5.89866 5.90489 66.41972 0 0 0
253 6.75218 5.53202 66.63624 0 0 0
254 7.76353 5.36814 66.93386 0 0 0
255 8.46705 4.62505 67.19070 0 0 0
256 9.38755 4.31635 67.15892 0 0 0
257 10.05849 4.81420 66.65363 0 0 0
258 10.65528 5.34613 66.08236 0 0 0
259 11.33119 6.02077 65.99712 0 0 0
260 11.93514 6.52473 65.42942 0 0 0
261 12.43901 7.24729 65.82560 0 0 0
262 13.46654 7.34061 65.63189 0 0 0
263 14.34472 6.95171 65.70873 0 0 0
264 15.03539 6.30777 65.37109 0 0 0
265 15.85128 5.85837 65.53916 0 0 0
266 16.58968 6.42109 65.20584 0 0 0
267 17.43615 6.92242 65.52740 0 0 0
268 18.26183 6.71918 65.02265 0 0 0
269 19.15339 6.91022 65.39673 0 0 0
270 19.93060 7.54170 65.29149 0 0 0
271 20.12353 8.33786 64.76777 0 0 0
272 21.08692 8.32531 64.98767 0 0 0
273 22.01240 8.29528 65.23014 0 0 0
274 22.02513 8.68245 66.13958 0 0 0
275 22.60350 9.40217 66.40661 0 0 0
276 22.59006 9.75877 67.33067 0 0 0
277 5.44582 5.43103 67.88620 0 0 0
278 5.13822 4.87907 68.67504 0 0 0
279 4.96629 4.00148 69.24380 0 0 0
280 5.29493 3.56849 70.15720 0 0 0
281 5.08379 3.73308 71.08468 0 0 0
282 4.95018 3.69664 72.04191 0 0 0
283 4.58231 2.79558 72.31568 0 0 0
284 4.67518 2.21025 73.06844 0 0 0
285 4.98085 1.53781 73.71689 0 0 0
286 5.32098 1.62236 74.62126 0 0 0
287 5.97924 1.59632 75.36504 0 0 0
288 5.82620 1.27227 76.25754 0 0 0
289 5.60879 1.16665 77.21195 0 0 0
290 4.79751 0.59431 77.06141 0 0 0
291 4.88249 0.30324 78.02870 0 0 0
292 4.37988 -0.30890 78.63297 0 0 0
293 4.44679 -1.30889 78.75624 0 0 0
294 4.22856 -1.77339 79.60660 0 0 0
295 4.24674 -1.98132 80.68032 0 0 0
296 4.42417 -2.50647 81.41683 0 0 0
297 5.01456 -2.63091 82.16737 0 0 0
298 5.00382 -3.01929 83.06043 0 0 0
299 4.42815 -3.66069 83.50285 0 0 0
300 3.95697 -4.48670 83.40402 0 0 0
301 4.40709 -5.35863 83.32223 0 0 0
302 4.44934 6.45202 67.53494 0 0 0
303 4.16699 7.19838 68.05432 0 0 0
304 3.88870 7.97829 68.54576 0 0 0
305 3.87066 8.95439 68.49332 0 0 0
306 3.74927 9.89767 68.60659 0 0 0
307 4.04753 10.84601 68.51990 0 0 0
308 3.99869 11.73505 68.96776 0 0 0
309 3.80656 12.56837 69.43678 0 0 0
310 3.03117 13.28571 69.49616 0 0 0
311 2.91368 14.23998 69.84290 0 0 0
312 2.27955 14.94192 70.12641 0 0 0
313 2.09549 15.68267 70.71397 0 0 0
314 1.35459 16.28761 70.45888 0 0 0
315 0.84241 16.87523 71.11959 0 0 0
316 0.14137 17.49838 70.83839 0 0 0
317 0.19068 18.47694 70.71928 0 0 0
318 0.57640 19.39492 70.59965 0 0 0
319 -0.15820 19.87034 70.11144 0 0 0
320 -0.40077 20.74296 70.52874 0 0 0
321 -0.50114 21.74867 70.32787 0 0 0
322 -1.04608 22.56955 70.32029 0 0 0
323 -1.71239 23.06111 70.81874 0 0 0
324 -2.39406 23.64050 71.17227 0 0 0
325 -2.22161 24.65677 71.46312 0 0 0
326 -2.78265 25.42650 71.40367 0 0 0
327 -3.20275 25.64516 70.52662 0 0 0
328 -3.23797 24.86985 69.92547 0 0 0
329 -3.99298 24.19948 70.01342 0 0 0
330 -4.08478 24.65844 69.15025 0 0 0
331 -3.80555 25.60135 69.27229 0 0 0
332 -3.51400 26.02225 68.45528 0 0 0
333 -2.90412 26.26167 67.78385 0 0 0
334 -2.92626 26.80453 66.96409 0 0 0
335 -3.00908 27.06415 66.03036 0 0 0
336 -2.64241 26.57552 65.24302 0 0 0
337 -2.93736 27.01053 64.33837 0 0 0
338 -3.36572 26.23001 63.83062 0 0 0
339 -3.34487 25.75898 62.98489 0 0 0
340 -3.47762 26.28299 62.15495 0 0 0
341 -3.29761 25.92538 61.27479 0 0 0
342 -2.89687 26.46641 60.61401 0 0 0
343 -3.02122 27.02490 59.76462 0 0 0
344 -2.59792 27.17627 58.93522 0 0 0
345 -2.35779 26.69985 58.05687 0 0 0
346 -1.75338 26.53664 57.17066 0 0 0
347 -2.12175 25.65691 56.99105 0 0 0
348 -1.77884 25.45925 56.10168 0 0 0
349 -1.30231 25.34586 55.21049 0 0 0
350 -1.04093 25.87559 54.38542 0 0 0
351 -1.70376 25.90272 53.67789 0 0 0
352 -3.22053 26.24281 71.57959 0 0 0
353 -2.45244 26.76538 71.78305 0 0 0
354 -1.62807 27.22807 71.46361 0 0 0
355 -1.37950 27.89437 72.16243 0 0 0
356 -1.83234 28.45507 72.98307 0 0 0
357 -1.51468 29.23527 73.48388 0 0 0
358 -0.97595 29.89432 74.07694 0 0 0
359 -0.56425 30.42914 74.80327 0 0 0
360 -0.14332 30.84015 75.56402 0 0 0
361 0.44275 31.49280 76.02286 0 0 0
362 1.06083 31.19532 76.75598 0 0 0
363 2.00417 31.05289 77.05257 0 0 0
364 2.64906 31.72281 76.79336 0 0 0
365 2.93841 32.29399 76.09708 0 0 0
366 3.17757 33.08870 76.73899 0 0 0
367 3.11582 33.46715 77.64588 0 0 0
368 3.54927 33.91906 78.38854 0 0 0
369 4.40882 34.34902 78.67248 0 0 0
370 4.70726 35.02143 79.39660 0 0 0
371 4.75864 35.94922 79.77819 0 0 0
372 5.30756 36.47204 80.36797 0 0 0
373 5.55226 36.61736 79.44958 0 0 0
374 5.28375 36.94722 78.49750 0 0 0
375 4.43530 37.10189 78.87818 0 0 0
376 4.05109 37.33561 79.74932 0 0 0
377 -3.07665 25.19353 72.34951 0 0 0
378 -3.98546 25.63684 72.56562 0 0 0
379 -4.94382 25.62506 72.37374 0 0 0
380 -5.61404 25.85380 72.97847 0 0 0
381 -6.59399 25.92286 72.93822 0 0 0
382 -7.40796 26.22070 73.46055 0 0 0
383 -8.09727 26.94751 73.42979 0 0 0
384 -8.84691 27.21400 73.93843 0 0 0
385 -9.45812 27.85635 74.51661 0 0 0
386 -10.37013 28.07274 74.66269 0 0 0
387 -11.22644 27.56768 74.56827 0 0 0
388 -11.56442 26.76141 74.14267 0 0 0
389 -12.64295 26.70651 74.25043 0 0 0
390 -13.25730 26.74683 74.96686 0 0 0
391 -13.89152 27.11403 75.63055 0 0 0
392 -14.56317 27.66670 76.11336 0 0 0
393 -15.47512 27.77790 76.42498 0 0 0
394 -15.51032 28.05290 75.47769 0 0 0
395 -16.37219 28.31987 75.25086 0 0 0
396 -17.23136 28.17142 75.72403 0 0 0
397 -18.14552 28.03674 75.81232 0 0 0
398 -18.94065 28.08007 76.32464 0 0 0
399 -19.83537 28.31215 76.58922 0 0 0
400 -19.88638 28.71184 75.64956 0 0 0
401 -20.33951 29.25773 75.03021 0 0 0
ITEM: TIMESTEP
2000
ITEM: NUMBER OF ATOMS
401
ITEM: BOX BOUNDS pp pp pp
-1.0000000000000000e+03 1.0000000000000000e+03
-1.0000000000000000e+03 1.0000000000000000e+03
-1.0000000000000000e+03 1.0000000000000000e+03
ITEM: ATOMS id x y z ix iy iz
1 1.99993 0.15520 7.96301 0 0 0
2 1.63809 0.03182 7.04599 0 0 0