ITEM: TIMESTEP
0
ITEM: NUMBER OF ATOMS
201
ITEM: BOX BOUNDS pp pp pp
-1.0000000000000000e+03 1.0000000000000000e+03
-1.0000000000000000e+03 1.0000000000000000e+03
-1.0000000000000000e+03 1.0000000000000000e+03
ITEM: ATOMS id x y z ix iy iz
1 0.00000 0.00000 0.00000 0 0 0
2 0.00000 0.00000 1.00000 0 0 0
3 0.00000 -0.50000 1.86603 0 0 0
4 0.00000 0.00000 2.73205 0 0 0
5 0.00000 -0.50000 3.59808 0 0 0
6 0.00000 0.00000 4.46410 0 0 0
7 0.00000 -0.50000 5.33013 0 0 0
8 0.00000 0.00000 6.19615 0 0 0
9 0.00000 -0.50000 7.06218 0 0 0
10 0.00000 0.00000 7.92820 0 0 0
11 0.00000 -0.50000 8.79423 0 0 0
12 0.00000 0.00000 9.66025 0 0 0
13 0.00000 -0.50000 10.52628 0 0 0
14 0.00000 0.00000 11.39230 0 0 0
15 0.00000 -0.50000 12.25833 0 0 0
16 0.00000 0.00000 13.12436 0 0 0
17 0.00000 -0.50000 13.99038 0 0 0
18 0.00000 0.00000 14.85641 0 0 0
19 0.00000 -0.50000 15.72243 0 0 0
20 0.00000 0.00000 16.58846 0 0 0
21 0.00000 -0.50000 17.45448 0 0 0
22 0.00000 0.00000 18.32051 0 0 0
23 0.00000 -0.50000 19.18653 0 0 0
24 0.00000 0.00000 20.05256 0 0 0
25 0.00000 -0.50000 20.91858 0 0 0
26 0.00000 0.00000 21.78461 0 0 0
27 0.00000 -0.50000 22.65064 0 0 0
28 0.00000 0.00000 23.51666 0 0 0
29 0.00000 -0.50000 24.38269 0 0 0
30 0.00000 0.00000 25.24871 0 0 0
31 0.00000 -0.50000 26.11474 0 0 0
32 0.00000 0.00000 26.98076 0 0 0
33 0.00000 -0.50000 27.84679 0 0 0
34 0.00000 0.00000 28.71281 0 0 0
35 0.00000 -0.50000 29.57884 0 0 0
36 0.00000 0.00000 30.44486 0 0 0
37 0.00000 -0.50000 31.31089 0 0 0
38 0.00000 0.00000 32.17691 0 0 0
39 0.00000 -0.50000 33.04294 0 0 0
40 0.00000 0.00000 33.90897 0 0 0
41 0.00000 -0.50000 34.77499 0 0 0
42 0.00000 0.00000 35.64102 0 0 0
43 0.00000 -0.50000 36.50704 0 0 0
44 0.00000 0.00000 37.37307 0 0 0
45 0.00000 -0.50000 38.23909 0 0 0
46 0.00000 0.00000 39.10512 0 0 0
47 0.00000 -0.50000 39.97114 0 0 0
48 0.00000 0.00000 40.83717 0 0 0
49 0.00000 -0.50000 41.70319 0 0 0
50 0.00000 0.00000 42.56922 0 0 0
51 0.00000 -0.50000 43.43524 0 0 0
52 0.69273 -0.11325 44.04398 0 0 0
53 1.38545 -0.08269 44.76453 0 0 0
54 2.07818 0.55661 45.09834 0 0 0
55 2.77091 0.58717 45.81889 0 0 0
56 3.46363 1.22647 46.15270 0 0 0
57 4.15636 1.25704 46.87325 0 0 0
58 4.84909 1.89633 47.20706 0 0 0
59 5.54181 1.92690 47.92761 0 0 0
60 6.23454 2.56620 48.26142 0 0 0
61 6.92727 2.59676 48.98197 0 0 0
62 7.61999 3.23606 49.31578 0 0 0
63 8.31272 3.26662 50.03633 0 0 0
64 9.00545 3.90592 50.37013 0 0 0
65 9.69817 3.93649 51.09069 0 0 0
66 10.39090 4.57578 51.42449 0 0 0
67 11.08363 4.60635 52.14505 0 0 0
68 11.77635 5.24565 52.47885 0 0 0
69 12.46908 5.27621 53.19940 0 0 0
70 13.16181 5.91551 53.53321 0 0 0
71 13.85453 5.94607 54.25376 0 0 0
72 14.54726 6.58537 54.58757 0 0 0
73 15.23999 6.61594 55.30812 0 0 0
74 15.93271 7.25524 55.64193 0 0 0
75 16.62544 7.28580 56.36248 0 0 0
76 17.31817 7.92510 56.69629 0 0 0
77 18.01089 7.95566 57.41684 0 0 0
78 18.70362 8.59496 57.75065 0 0 0
79 19.39635 8.62553 58.47120 0 0 0
80 20.08907 9.26482 58.80501 0 0 0
81 20.78180 9.29539 59.52556 0 0 0
82 21.47453 9.93469 59.85937 0 0 0
83 22.16725 9.96525 60.57992 0 0 0
84 22.85998 10.60455 60.91373 0 0 0
85 23.55271 10.63511 61.63428 0 0 0
86 24.24543 11.27441 61.96809 0 0 0
87 24.93816 11.30498 62.68864 0 0 0
88 25.63089 11.94428 63.02244 0 0 0
89 26.32361 11.97484 63.74300 0 0 0
90 27.01634 12.61414 64.07680 0 0 0
91 27.70907 12.64470 64.79736 0 0 0
92 28.40179 13.28400 65.13116 0 0 0
93 29.09452 13.31456 65.85171 0 0 0
94 29.78725 13.95386 66.18552 0 0 0
95 30.47997 13.98443 66.90607 0 0 0
96 31.17270 14.62373 67.23988 0 0 0
97 31.86543 14.65429 67.96043 0 0 0
98 32.55815 15.29359 68.29424 0 0 0
99 33.25088 15.32415 69.01479 0 0 0
100 33.94361 15.96345 69.34860 0 0 0
101 34.63633 15.99402 70.06915 0 0 0
102 0.20729 -1.46327 43.26455 0 0 0
103 0.41457 -2.21214 42.63508 0 0 0
104 0.62186 -3.13171 42.96889 0 0 0
105 0.82914 -3.88058 42.33942 0 0 0
106 1.03643 -4.80015 42.67323 0 0 0
107 1.24371 -5.54902 42.04376 0 0 0
108 1.45100 -6.46859 42.37757 0 0 0
109 1.65828 -7.21745 41.74810 0 0 0
110 1.86557 -8.13702 42.08191 0 0 0
111 2.07286 -8.88589 41.45244 0 0 0
112 2.28014 -9.80546 41.78625 0 0 0
113 2.48743 -10.55433 41.15678 0 0 0
114 2.69471 -11.47390 41.49059 0 0 0
115 2.90200 -12.22277 40.86113 0 0 0
116 3.10928 -13.14234 41.19493 0 0 0
117 3.31657 -13.89120 40.56547 0 0 0
118 3.52385 -14.81077 40.89927 0 0 0
119 3.73114 -15.55964 40.26981 0 0 0
120 3.93843 -16.47921 40.60361 0 0 0
121 4.14571 -17.22808 39.97415 0 0 0
122 4.35300 -18.14765 40.30795 0 0 0
123 4.56028 -18.89652 39.67849 0 0 0
124 4.76757 -19.81609 40.01230 0 0 0
125 4.97485 -20.56495 39.38283 0 0 0
126 5.18214 -21.48452 39.71664 0 0 0
127 5.38942 -22.23339 39.08717 0 0 0
128 5.59671 -23.15296 39.42098 0 0 0
129 5.80400 -23.90183 38.79151 0 0 0
130 6.01128 -24.82140 39.12532 0 0 0
131 6.21857 -25.57027 38.49585 0 0 0
132 6.42585 -26.48984 38.82966 0 0 0
133 6.63314 -27.23871 38.20019 0 0 0
134 6.84042 -28.15827 38.53400 0 0 0
135 7.04771 -28.90714 37.90453 0 0 0
136 7.25499 -29.82671 38.23834 0 0 0
137 7.46228 -30.57558 37.60887 0 0 0
138 7.66957 -31.49515 37.94268 0 0 0
139 7.87685 -32.24402 37.31322 0 0 0
140 8.08414 -33.16359 37.64702 0 0 0
141 8.29142 -33.91246 37.01756 0 0 0
142 8.49871 -34.83202 37.35136 0 0 0
143 8.70599 -35.58089 36.72190 0 0 0
144 8.91328 -36.50046 37.05570 0 0 0
145 9.12056 -37.24933 36.42624 0 0 0
146 9.32785 -38.16890 36.76004 0 0 0
147 9.53514 -38.91777 36.13058 0 0 0
148 9.74242 -39.83734 36.46439 0 0 0
149 9.94971 -40.58621 35.83492 0 0 0
150 10.15699 -41.50577 36.16873 0 0 0
151 10.36428 -42.25464 35.53926 0 0 0
152 -0.90001 -0.42418 43.86446 0 0 0
153 -1.80002 -0.57313 44.27409 0 0 0
154 -2.70004 -0.29286 44.60790 0 0 0
155 -3.60005 -0.44181 45.01752 0 0 0
156 -4.50006 -0.16154 45.35133 0 0 0
157 -5.40007 -0.31050 45.76095 0 0 0
158 -6.30009 -0.03023 46.09476 0 0 0
159 -7.20010 -0.17918 46.50438 0 0 0
160 -8.10011 0.10109 46.83819 0 0 0
161 -9.00012 -0.04786 47.24781 0 0 0
162 -9.90013 0.23241 47.58162 0 0 0
163 -10.80015 0.08346 47.99124 0 0 0
164 -11.70016 0.36373 48.32505 0 0 0
165 -12.60017 0.21478 48.73467 0 0 0
166 -13.50018 0.49505 49.06848 0 0 0
167 -14.40020 0.34610 49.47810 0 0 0
168 -15.30021 0.62637 49.81191 0 0 0
169 -16.20022 0.47742 50.22154 0 0 0
170 -17.10023 0.75769 50.55534 0 0 0
171 -18.00024 0.60874 50.96497 0 0 0
172 -18.90026 0.88901 51.29877 0 0 0
173 -19.80027 0.74006 51.70840 0 0 0
174 -20.70028 1.02033 52.04220 0 0 0
175 -21.60029 0.87138 52.45183 0 0 0
176 -22.50030 1.15165 52.78563 0 0 0
177 -23.40032 1.00270 53.19526 0 0 0
178 -24.30033 1.28297 53.52907 0 0 0
179 -25.20034 1.13402 53.93869 0 0 0
180 -26.10035 1.41428 54.27250 0 0 0
181 -27.00037 1.26533 54.68212 0 0 0
182 -27.90038 1.54560 55.01593 0 0 0
183 -28.80039 1.39665 55.42555 0 0 0
184 -29.70040 1.67692 55.75936 0 0 0
185 -30.60041 1.52797 56.16898 0 0 0
186 -31.50043 1.80824 56.50279 0 0 0
187 -32.40044 1.65929 56.91241 0 0 0
188 -33.30045 1.93956 57.24622 0 0 0
189 -34.20046 1.79061 57.65584 0 0 0
190 -35.10048 2.07088 57.98965 0 0 0
191 -36.00049 1.92193 58.39927 0 0 0
192 -36.90050 2.20220 58.73308 0 0 0
193 -37.80051 2.05325 59.14271 0 0 0
194 -38.70052 2.33352 59.47651 0 0 0
195 -39.60054 2.18457 59.88614 0 0 0
196 -40.50055 2.46484 60.21994 0 0 0
197 -41.40056 2.31589 60.62957 0 0 0
198 -42.30057 2.59616 60.96337 0 0 0
199 -43.20059 2.44721 61.37300 0 0 0
200 -44.10060 2.72748 61.70680 0 0 0
201 -45.00061 2.57853 62.11643 0 0 0
ITEM: TIMESTEP
1000
ITEM: NUMBER OF ATOMS
201
ITEM: BOX BOUNDS pp pp pp
-1.0000000000000000e+03 1.0000000000000000e+03
-1.0000000000000000e+03 1.0000000000000000e+03
-1.0000000000000000e+03 1.0000000000000000e+03
ITEM: ATOMS id x y z ix iy iz
1 -0.69703 0.85290 2.10544 0 0 0
2 -0.15074 0.37822 2.83766 0 0 0
3 -0.45639 -0.02101 3.66835 0 0 0
4 0.37482 0.25792 4.21547 0 0 0
5 -0.03363 0.84924 4.96079 0 0 0
6 0.12343 0.38314 5.77761 0 0 0
7 0.25834 0.76090 6.68288 0 0 0
8 0.12547 1.01407 7.63051 0 0 0
9 0.49241 1.59288 8.31198 0 0 0
10 0.98854 1.63308 9.12128 0 0 0
11 0.69226 1.17743 9.96220 0 0 0
12 0.53998 0.72349 10.79116 0 0 0
13 0.39474 0.47714 11.74632 0 0 0
14 0.74605 0.14650 12.59917 0 0 0
15 0.84251 -0.16570 13.53262 0 0 0
16 0.85938 -0.24261 14.55961 0 0 0
17 0.39685 -0.20859 15.38775 0 0 0
18 0.55409 -0.46110 16.27874 0 0 0
19 0.66922 -0.89951 17.13945 0 0 0
20 0.42156 -0.91997 18.07180 0 0 0
21 0.84079 -0.68228 18.96376 0 0 0
22 0.24575 -1.28714 19.39401 0 0 0
23 -0.18498 -1.46359 20.29271 0 0 0
24 -0.37202 -2.06666 21.07257 0 0 0
25 -0.39816 -1.43783 21.74695 0 0 0
26 -0.03368 -1.36434 22.66306 0 0 0
27 -0.08513 -0.80415 23.52101 0 0 0
28 -0.23763 -0.49055 24.40377 0 0 0
29 0.24492 -0.35884 25.30833 0 0 0
30 0.43683 0.00393 26.25757 0 0 0
31 0.27769 0.35939 27.16138 0 0 0
32 0.09509 0.66105 28.08008 0 0 0
33 -0.20279 1.07869 28.89989 0 0 0
34 -0.31529 1.19090 29.82687 0 0 0
35 0.11422 1.37644 30.70108 0 0 0
36 -0.19026 1.52294 31.63605 0 0 0
37 -0.69272 1.62543 32.53835 0 0 0
38 -0.88974 1.64582 33.55415 0 0 0
39 -0.81001 1.41226 34.48352 0 0 0
40 -1.26252 1.14614 35.38847 0 0 0
41 -1.08152 1.37017 36.26252 0 0 0
42 -1.48558 0.53636 36.54547 0 0 0
43 -1.61706 0.47624 37.44691 0 0 0
44 -1.50859 -0.11466 38.18428 0 0 0
45 -1.83580 -0.67099 39.01077 0 0 0
46 -1.72724 -0.97039 40.01689 0 0 0
47 -1.96338 -0.98485 40.99057 0 0 0
48 -1.22597 -0.39535 41.25386 0 0 0
49 -0.80734 -0.68145 42.16044 0 0 0
50 -0.43497 -0.36714 43.02776 0 0 0
51 -0.88495 -0.87392 43.77529 0 0 0
52 -0.42976 -0.98397 44.61841 0 0 0
53 0.30346 -0.52185 45.01125 0 0 0
54 0.85657 0.05566 45.60427 0 0 0
55 1.63982 0.32129 46.15215 0 0 0
56 2.47320 0.64067 46.58519 0 0 0
57 2.85776 1.22875 47.28833 0 0 0
58 3.71760 1.05565 47.57890 0 0 0
59 4.62367 1.63734 47.81393 0 0 0
60 5.50301 1.76917 48.07229 0 0 0
61 6.36455 1.71724 48.60035 0 0 0
62 7.04494 2.41336 48.69107 0 0 0
63 7.94168 2.84060 48.95773 0 0 0
64 8.68465 3.52198 49.11539 0 0 0
65 8.96911 4.13265 49.94925 0 0 0
66 9.37497 4.82342 50.54300 0 0 0
67 9.83231 5.42056 51.13666 0 0 0
68 10.68022 5.68382 51.53382 0 0 0
69 11.31311 6.32873 51.90074 0 0 0
70 11.83563 6.91482 52.51916 0 0 0
71 12.61627 7.06553 53.02346 0 0 0
72 12.96713 7.96160 53.41664 0 0 0
73 13.29352 8.75989 53.90478 0 0 0
74 13.90014 9.46911 54.31168 0 0 0
75 14.74980 9.94108 54.35635 0 0 0
76 15.45504 9.65126 54.98265 0 0 0
77 16.17054 9.92508 55.73070 0 0 0
78 16.94431 10.01156 56.37976 0 0 0
79 17.94257 10.05380 56.63950 0 0 0
80 18.72721 9.96945 57.31345 0 0 0
81 18.81019 10.37330 58.31170 0 0 0
82 19.45272 10.64909 59.00297 0 0 0
83 20.35494 10.39159 59.27644 0 0 0
84 21.15999 10.61335 59.80584 0 0 0
85 21.89777 10.60481 60.51688 0 0 0
86 21.99229 11.09491 61.31446 0 0 0
87 22.87530 11.34349 61.59341 0 0 0
88 23.31210 11.99652 62.27685 0 0 0
89 24.18633 11.77988 62.60844 0 0 0
90 25.07275 12.03188 62.84732 0 0 0
91 25.59867 11.98973 63.62523 0 0 0
92 26.34457 12.54235 63.97639 0 0 0
93 27.28318 13.06142 63.93132 0 0 0
94 28.13782 13.30141 64.39159 0 0 0
95 29.05505 13.36580 64.73868 0 0 0
96 29.80367 13.42415 65.33442 0 0 0
97 30.32106 13.70302 66.16404 0 0 0
98 31.12536 14.29287 66.13436 0 0 0
99 32.00957 14.57700 66.08871 0 0 0
100 32.81938 14.93545 65.60491 0 0 0
101 33.79274 14.81599 65.65488 0 0 0
102 -0.51089 -1.66627 43.33215 0 0 0
103 -0.08195 -2.39258 43.90814 0 0 0
104 0.06571 -3.25584 43.24796 0 0 0
105 0.38451 -4.13027 43.05333 0 0 0
106 0.64733 -5.02438 42.67135 0 0 0
107 1.46622 -5.59370 42.52434 0 0 0
108 1.64233 -6.47679 42.26279 0 0 0
109 2.04082 -6.99717 41.53285 0 0 0
110 2.63249 -7.55464 40.90896 0 0 0
111 2.56917 -8.47229 40.65545 0 0 0
112 3.03222 -9.29939 41.08083 0 0 0
113 3.44528 -10.11901 40.86805 0 0 0
114 3.66275 -11.11295 41.24284 0 0 0
115 3.88420 -12.07123 41.29153 0 0 0
116 4.39950 -12.85180 40.98810 0 0 0
117 4.50778 -13.76165 40.70027 0 0 0
118 4.22668 -14.64863 40.34132 0 0 0
119 4.45738 -15.46260 39.77556 0 0 0
120 4.60914 -16.43158 39.46363 0 0 0
121 5.03135 -17.28176 39.37712 0 0 0
122 5.47212 -18.32276 39.67732 0 0 0
123 5.14768 -19.10499 39.13321 0 0 0
124 5.37161 -19.99474 38.85641 0 0 0
125 5.55382 -20.87455 39.14701 0 0 0
126 5.79146 -21.77817 39.45575 0 0 0
127 5.65988 -22.66266 39.81714 0 0 0
128 5.92596 -23.38001 40.40510 0 0 0
129 6.00063 -24.33914 40.03846 0 0 0
130 6.66127 -24.97862 39.58665 0 0 0
131 7.10470 -25.65472 39.02612 0 0 0
132 7.21660 -26.57398 39.09994 0 0 0
133 7.56956 -27.44379 39.26026 0 0 0
134 6.89851 -28.11935 39.26459 0 0 0
135 7.46210 -28.30099 40.07915 0 0 0
136 7.91256 -28.76350 40.82311 0 0 0
137 8.39741 -29.58705 41.25210 0 0 0
138 7.98993 -30.24243 40.59847 0 0 0
139 7.75354 -31.02897 40.06213 0 0 0
140 7.39284 -31.93612 40.15252 0 0 0
141 6.89690 -32.77274 39.99158 0 0 0
142 6.62345 -33.50316 39.28439 0 0 0
143 7.12237 -33.95984 38.68116 0 0 0
144 7.55749 -34.28252 37.74890 0 0 0
145 7.62317 -35.03259 37.21722 0 0 0
146 8.37224 -35.58793 37.22518 0 0 0
147 8.57697 -36.60489 37.10473 0 0 0
148 8.76139 -37.55331 36.92560 0 0 0
149 8.35858 -38.22379 36.33923 0 0 0
150 7.78657 -38.92519 36.01334 0 0 0
151 7.59293 -39.50655 35.22551 0 0 0
152 -1.78290 -0.36245 44.01035 0 0 0
153 -2.74894 -0.26521 44.31154 0 0 0
154 -3.58313 -0.04864 44.81685 0 0 0
155 -4.03190 0.77719 45.06520 0 0 0
156 -5.03927 0.99478 45.15920 0 0 0
157 -5.63701 0.75628 45.88570 0 0 0
158 -6.56949 0.87565 46.22721 0 0 0
159 -7.16242 0.47896 46.91792 0 0 0
160 -7.87680 0.60029 47.50402 0 0 0
161 -8.88500 0.50563 47.49017 0 0 0
162 -9.65274 0.26834 48.00132 0 0 0
163 -10.33584 0.64610 48.62348 0 0 0
164 -11.34372 0.65043 48.63008 0 0 0
165 -12.32067 0.72431 48.66711 0 0 0
166 -13.32665 0.93513 48.74937 0 0 0
167 -14.30672 1.21511 48.63559 0 0 0
168 -15.18848 1.79858 48.80265 0 0 0
169 -16.01713 1.76890 49.27415 0 0 0
170 -16.91847 1.78930 49.69285 0 0 0
171 -17.70275 1.75972 50.30246 0 0 0
172 -18.63959 1.53021 49.96579 0 0 0
173 -19.30055 1.73007 50.69663 0 0 0
174 -20.28839 2.04797 50.67881 0 0 0
175 -20.79122 1.31209 51.22430 0 0 0
176 -21.31626 0.84419 51.89724 0 0 0
177 -21.28600 1.48798 52.59400 0 0 0
178 -21.70240 2.16291 53.12669 0 0 0
179 -22.61037 2.39427 52.98038 0 0 0
180 -23.53149 2.60742 52.95488 0 0 0
181 -24.01493 2.51759 53.79209 0 0 0
182 -24.90927 2.48818 54.24246 0 0 0
183 -25.57689 1.85870 54.62783 0 0 0
184 -26.28606 2.45904 54.79034 0 0 0
185 -27.24253 2.37035 54.68339 0 0 0
186 -28.14276 2.82303 54.60577 0 0 0
187 -28.95404 2.18658 54.80127 0 0 0
188 -28.84237 2.36053 55.72763 0 0 0
189 -29.48216 1.82514 56.17445 0 0 0
190 -30.32340 1.38226 55.91821 0 0 0
191 -31.17286 1.43049 56.51395 0 0 0
192 -31.90107 1.10086 57.08456 0 0 0
193 -32.88259 0.81184 57.25829 0 0 0
194 -33.97634 0.93621 57.23200 0 0 0
195 -34.82493 0.82809 56.79188 0 0 0
196 -35.78086 0.82103 56.70053 0 0 0
197 -36.20182 0.32549 57.42500 0 0 0
198 -36.11456 -0.49395 57.90244 0 0 0
199 -36.68657 -0.39973 58.69406 0 0 0
200 -37.43396 -0.98176 58.80139 0 0 0
201 -37.64620 -1.14947 57.88818 0 0 0
ITEM: TIMESTEP
2000
ITEM: NUMBER OF ATOMS
201
ITEM: BOX BOUNDS pp pp pp
-1.0000000000000000e+03 1.0000000000000000e+03
-1.0000000000000000e+03 1.0000000000000000e+03
-1.0000000000000000e+03 1.0000000000000000e+03
ITEM: ATOMS id x y z ix iy iz
1 0.03493 0.73786 4.48153 0 0 0
2 -0.52639 0.30723 5.16410 0 0 0
3 -0.84035 0.69647 6.07425 0 0 0
4 -0.53219 0.10651 6.85358 0 0 0
5 -0.82100 0.22929 7.81633 0 0 0
6 0.01280 0.80182 7.92382 0 0 0
7 -0.46585 0.62150 8.73256 0 0 0
8 -0.07609 0.77891 9.57358 0 0 0
9 0.83850 0.99233 9.70502 0 0 0
10 1.73978 0.62132 9.67899 0 0 0
11 1.78377 0.46290 10.66842 0 0 0
12 0.85418 0.29409 10.77093 0 0 0
13 1.37372 0.13849 11.62595 0 0 0
14 1.47760 -0.30823 12.58426 0 0 0
15 1.41820 -0.30762 13.53872 0 0 0
16 1.91796 -0.28833 14.43586 0 0 0
17 1.61666 -0.50623 15.32380 0 0 0
18 0.94580 -0.77154 15.96606 0 0 0
19 1.61045 -0.20804 16.51923 0 0 0
20 1.23766 0.05647 17.35029 0 0 0
21 1.27224 -0.54376 18.10764 0 0 0
22 0.79408 -0.71709 19.03668 0 0 0
23 0.79947 -0.50513 20.08242 0 0 0
24 0.27493 -0.40605 20.95283 0 0 0
25 -0.08588 -0.58454 21.89000 0 0 0
26 0.36663 -0.54414 22.71691 0 0 0
27 1.08750 -0.34130 23.41092 0 0 0
28 1.71176 -0.22766 24.29147 0 0 0
29 1.43180 -0.09711 25.22641 0 0 0
30 1.13589 0.14921 26.07485 0 0 0
31 0.95610 0.36264 26.97552 0 0 0
32 1.40311 0.47040 27.85806 0 0 0
33 1.43793 0.64506 28.88682 0 0 0
34 1.04277 0.54660 29.78403 0 0 0
35 0.41319 0.50634 30.56118 0 0 0
36 0.28793 0.56113 31.56864 0 0 0
37 0.67668 0.60179 32.46525 0 0 0
38 0.95424 0.39518 33.36048 0 0 0
39 1.22544 0.10777 34.23971 0 0 0
40 0.92108 -0.07945 35.13691 0 0 0
41 1.02194 0.01987 36.13868 0 0 0
42 0.71897 -0.43053 36.89462 0 0 0
43 0.48840 -1.09854 37.58314 0 0 0
44 0.28809 -1.28535 38.53200 0 0 0
45 -0.22567 -1.10713 39.40423 0 0 0
46 -0.73463 -0.51286 40.00733 0 0 0
47 -1.04928 -0.84112 40.89252 0 0 0
48 -1.75104 -0.91457 41.48803 0 0 0
49 -1.46744 -0.94403 42.40224 0 0 0
50 -1.44290 -0.70433 43.34203 0 0 0
51 -1.45183 -1.14060 44.19488 0 0 0
52 -0.49849 -1.31360 44.50671 0 0 0
53 0.24660 -0.74933 44.65711 0 0 0
54 1.18935 -0.59614 45.20357 0 0 0
55 1.95677 -0.10686 45.65289 0 0 0
56 2.50175 0.64303 46.20628 0 0 0
57 3.30289 0.91726 46.76609 0 0 0
58 3.87290 1.12267 47.56116 0 0 0
59 4.24493 1.86289 48.26040 0 0 0
60 5.06510 2.00121 48.65844 0 0 0
61 5.74644 2.60234 48.98029 0 0 0
62 6.71661 2.92709 49.39283 0 0 0
63 7.42689 3.21115 49.99245 0 0 0
64 8.23691 3.46867 50.51090 0 0 0
65 8.85857 3.88786 51.14050 0 0 0
66 9.51054 4.18796 51.79045 0 0 0
67 9.46724 4.09873 52.72164 0 0 0
68 10.28536 3.99521 53.19621 0 0 0
69 11.16603 4.43535 53.51761 0 0 0
70 11.86686 5.10573 53.32742 0 0 0
71 12.48894 5.78224 52.83547 0 0 0
72 13.18420 6.41668 53.24113 0 0 0
73 13.61238 6.89100 53.98049 0 0 0
74 14.49839 7.16529 54.25128 0 0 0
75 14.95934 7.07900 55.12004 0 0 0
76 15.49751 7.57872 55.81080 0 0 0
77 16.23256 8.11072 56.07789 0 0 0
78 16.56141 8.51558 56.93876 0 0 0
79 17.38578 8.41825 57.41797 0 0 0
80 17.54238 9.23765 58.03691 0 0 0
81 18.09180 9.13759 58.83390 0 0 0
82 18.63800 9.50521 59.59666 0 0 0
83 19.60283 9.22213 60.06233 0 0 0
84 20.58145 9.46655 60.09435 0 0 0
85 21.52842 9.87459 60.15623 0 0 0
86 22.13566 10.28641 60.84752 0 0 0
87 22.76548 10.84160 61.26463 0 0 0
88 23.13083 11.59535 61.65114 0 0 0
89 24.00758 11.78619 62.03294 0 0 0
90 24.74654 11.81194 62.61856 0 0 0
91 24.60765 12.67181 63.17795 0 0 0
92 24.36085 12.18739 64.05522 0 0 0
93 25.24824 11.86026 64.14078 0 0 0
94 26.12195 11.80544 64.55886 0 0 0
95 26.88362 11.33617 64.22583 0 0 0
96 27.74317 11.28912 64.72564 0 0 0
97 28.42739 11.70476 65.27340 0 0 0
98 28.69508 12.48096 65.74080 0 0 0
99 29.37710 11.99668 66.22619 0 0 0
100 30.21902 12.07880 65.66201 0 0 0
101 30.22871 12.95236 65.11558 0 0 0
102 -1.58274 -2.02736 43.79915 0 0 0
103 -1.97319 -3.02529 43.83108 0 0 0
104 -1.64453 -3.83241 43.47405 0 0 0
105 -1.48214 -4.78491 43.41389 0 0 0
106 -1.06869 -5.68998 43.57782 0 0 0
107 -0.84256 -6.71679 43.33484 0 0 0
108 -0.67840 -7.47634 42.75469 0 0 0
109 -0.43392 -8.36885 42.71435 0 0 0
110 -0.20851 -9.27712 42.31584 0 0 0
111 -0.13708 -10.22856 42.48909 0 0 0
112 0.60868 -10.89827 42.57163 0 0 0
113 1.02932 -11.79790 42.34271 0 0 0
114 1.56504 -12.55933 42.67666 0 0 0
115 2.13641 -13.24282 42.32203 0 0 0
116 2.60930 -14.01880 41.98764 0 0 0
117 2.62744 -14.92457 41.53792 0 0 0
118 2.28879 -15.84318 41.59894 0 0 0
119 2.82394 -15.49552 40.76420 0 0 0
120 3.77494 -15.72501 41.01626 0 0 0
121 4.74076 -16.01780 40.82921 0 0 0
122 5.49585 -16.54135 40.59040 0 0 0
123 6.13832 -16.83682 39.90322 0 0 0
124 6.05654 -17.74800 39.52166 0 0 0
125 6.29728 -18.63769 39.76984 0 0 0
126 6.21129 -19.71376 39.76135 0 0 0
127 6.06183 -20.65127 39.60496 0 0 0
128 5.92042 -21.49793 39.00648 0 0 0
129 5.80400 -22.46337 38.81682 0 0 0
130 6.10507 -23.34239 38.94343 0 0 0
131 6.76773 -24.06920 39.04242 0 0 0
132 6.89747 -24.51954 39.89736 0 0 0
133 6.77813 -25.38662 40.23720 0 0 0
134 6.59083 -26.09665 39.62157 0 0 0
135 6.69447 -27.04249 39.44836 0 0 0
136 6.97073 -27.78925 38.94712 0 0 0
137 7.17159 -28.68924 38.65825 0 0 0
138 7.35678 -29.49057 38.20409 0 0 0
139 8.24330 -29.74644 38.08216 0 0 0
140 8.71871 -29.92221 37.24928 0 0 0
141 8.25778 -30.40256 36.42200 0 0 0
142 8.49448 -31.25249 36.67762 0 0 0
143 9.26410 -31.45027 37.31240 0 0 0
144 9.32281 -32.38025 37.04889 0 0 0
145 8.75079 -33.22798 37.15505 0 0 0
146 8.22632 -33.98980 36.90231 0 0 0
147 8.16925 -34.31174 35.97111 0 0 0
148 7.84440 -35.07630 35.32020 0 0 0
149 6.91807 -35.34193 34.91837 0 0 0
150 6.29902 -36.04404 34.62099 0 0 0
151 5.31602 -36.26992 34.77794 0 0 0
152 -2.38663 -1.00938 43.91323 0 0 0
153 -3.18515 -0.97887 44.46064 0 0 0
154 -4.07356 -0.70260 44.72829 0 0 0
155 -4.86963 -0.48908 44.28884 0 0 0
156 -5.82293 -0.52829 44.15987 0 0 0
157 -5.86813 0.43647 44.35374 0 0 0
158 -6.50732 0.79687 45.03930 0 0 0
159 -6.99645 1.30614 44.24327 0 0 0
160 -7.81612 1.75731 44.25727 0 0 0
161 -8.41849 1.95711 45.03368 0 0 0
162 -9.37930 1.93681 45.11990 0 0 0
163 -9.90192 2.41134 45.76706 0 0 0
164 -10.87283 2.55658 45.74466 0 0 0
165 -11.65354 2.87857 46.20250 0 0 0
166 -12.58623 3.31917 45.98653 0 0 0
167 -13.58238 3.18406 46.00101 0 0 0
168 -14.31523 2.99625 46.54089 0 0 0
169 -13.98714 2.52423 47.34236 0 0 0
170 -14.24653 2.47890 48.28475 0 0 0
171 -15.17742 2.28006 48.30596 0 0 0
172 -16.12799 2.21244 48.16426 0 0 0
173 -17.00750 2.04318 48.59752 0 0 0
174 -17.57641 2.01316 49.40978 0 0 0
175 -18.53396 1.79650 49.23312 0 0 0
176 -19.40555 1.41925 49.20487 0 0 0
177 -20.19241 1.97482 49.42783 0 0 0
178 -20.90618 1.69713 50.04724 0 0 0
179 -21.84726 1.64036 49.97275 0 0 0
180 -22.61139 0.99476 50.00659 0 0 0
181 -23.21908 0.58909 50.61062 0 0 0
182 -23.93528 0.55500 51.25121 0 0 0
183 -24.95289 0.50063 51.45640 0 0 0
184 -25.95188 0.61185 51.69727 0 0 0
185 -26.52220 1.21387 52.24462 0 0 0
186 -27.24672 0.73203 52.76099 0 0 0
187 -27.85927 0.43963 53.48505 0 0 0
188 -28.85814 0.24180 53.82616 0 0 0
189 -29.30945 1.05114 54.38790 0 0 0
190 -30.21955 1.33153 54.67809 0 0 0
191 -31.24427 1.16487 54.81793 0 0 0
192 -31.51220 1.97138 55.27743 0 0 0
193 -32.19302 2.68019 55.57519 0 0 0
194 -32.57630 2.61437 56.44685 0 0 0
195 -32.99220 3.31233 57.06965 0 0 0
196 -33.93281 3.22753 57.30033 0 0 0
197 -34.51638 3.32852 58.15189 0 0 0
198 -35.10049 4.12032 58.02865 0 0 0
199 -35.62417 4.72872 58.66658 0 0 0
200 -35.56517 4.96362 59.66612 0 0 0
201 -36.36582 4.47142 59.37450 0 0 0
ITEM: TIMESTEP
3000
ITEM: NUMBER OF ATOMS
201
ITEM: BOX BOUNDS pp pp pp
-1.0000000000000000e+03 1.0000000000000000e+03
-1.0000000000000000e+03 1.0000000000000000e+03
-1.0000000000000000e+03 1.0000000000000000e+03
ITEM: ATOMS id x y z ix iy iz
1 -2.03819 2.87236 6.85782 0 0 0
2 -2.40482 3.01421 7.76307 0 0 0
3 -1.91297 2.21410 7.84007 0 0 0
4 -2.65274 1.60739 8.24379 0 0 0
5 -2.39696 1.12608 7.40701 0 0 0
6 -1.64405 1.25315 8.05274 0 0 0
7 -1.05062 1.32588 8.81939 0 0 0
8 -0.88538 0.86071 9.58385 0 0 0
9 -1.71641 0.61701 9.99098 0 0 0
10 -1.05599 0.64696 10.75315 0 0 0
11 -0.62102 0.71585 11.61199 0 0 0
12 -0.08022 0.71066 12.41023 0 0 0
13 0.37123 0.10423 13.04260 0 0 0
14 0.71291 -0.09751 13.92267 0 0 0
15 1.13413 0.05992 14.77174 0 0 0
16 1.99550 0.19387 15.30593 0 0 0
17 2.64417 -0.00044 16.00785 0 0 0
18 2.19077 -0.27526 16.88933 0 0 0
19 2.02362 -0.51644 17.78668 0 0 0
20 1.87316 -0.83527 18.68404 0 0 0
21 1.69360 -0.89419 19.62608 0 0 0
22 1.77916 -0.67682 20.54866 0 0 0
23 2.28357 -0.68507 21.42381 0 0 0
24 2.36069 -0.38923 22.40890 0 0 0
25 2.74146 -0.33353 23.31940 0 0 0
26 2.80947 -0.60781 24.32436 0 0 0
27 3.33076 -1.21569 24.91866 0 0 0
28 3.10943 -1.94833 25.64595 0 0 0
29 2.23116 -1.80390 26.15731 0 0 0
30 1.72678 -1.15405 26.69153 0 0 0
31 1.74185 -1.78454 27.52226 0 0 0
32 1.32783 -2.13388 28.33949 0 0 0
33 0.45401 -1.94448 28.69224 0 0 0
34 0.26098 -2.42014 29.57760 0 0 0
35 0.27828 -2.46218 30.53863 0 0 0
36 -0.20439 -2.07840 31.31942 0 0 0
37 -0.23799 -2.08702 32.32069 0 0 0
38 -0.49766 -1.62513 33.17380 0 0 0
39 -0.55740 -1.83557 34.20725 0 0 0
40 -0.71242 -1.45261 35.07940 0 0 0
41 -1.37646 -1.29874 35.83266 0 0 0
42 -1.54161 -1.89115 36.60605 0 0 0
43 -1.43308 -1.28020 37.42222 0 0 0
44 -1.63329 -0.54335 38.06206 0 0 0
45 -1.23774 0.12609 38.58935 0 0 0
46 -0.86247 0.65030 39.32167 0 0 0
47 -1.49033 0.66973 40.19890 0 0 0
48 -1.74192 0.45163 41.11056 0 0 0
49 -1.79404 0.25995 42.06561 0 0 0
50 -1.65040 -0.27551 42.80609 0 0 0
51 -1.40119 -0.06791 43.86737 0 0 0
52 -0.34447 -0.21671 43.98273 0 0 0
53 -0.03016 0.64645 44.39192 0 0 0
54 0.64144 0.66994 45.06660 0 0 0
55 1.32493 1.22357 45.70501 0 0 0
56 2.15999 1.04985 46.12121 0 0 0
57 3.01289 1.02809 46.68881 0 0 0
58 3.74641 0.60076 47.26078 0 0 0
59 4.29949 1.42469 47.54983 0 0 0
60 4.51657 2.40653 47.56175 0 0 0
61 5.05533 3.07935 48.01705 0 0 0
62 5.69990 3.03979 48.82276 0 0 0
63 6.60272 2.88898 48.90330 0 0 0
64 7.14002 3.17977 49.71560 0 0 0
65 7.80899 2.75156 50.26139 0 0 0
66 8.19481 3.76706 50.38948 0 0 0
67 9.01369 4.09232 50.69383 0 0 0
68 9.82727 4.56705 50.83990 0 0 0
69 10.54256 5.19132 51.16520 0 0 0
70 10.41897 5.60674 52.09772 0 0 0
71 11.16673 5.95657 52.71442 0 0 0
72 11.88544 6.59847 52.94736 0 0 0
73 12.67508 6.76430 53.47353 0 0 0
74 13.57040 6.98348 53.63786 0 0 0
75 14.50112 6.78313 53.26801 0 0 0
76 15.14091 7.12439 54.03462 0 0 0
77 15.86631 6.91446 54.69282 0 0 0
78 15.86849 7.47653 55.50875 0 0 0
79 16.64207 7.91175 55.90998 0 0 0
80 17.38739 7.76563 56.58087 0 0 0
81 18.24748 8.08269 56.84257 0 0 0
82 18.98463 8.65227 56.82767 0 0 0
83 19.54715 8.31287 57.69140 0 0 0
84 20.24975 8.48157 58.27336 0 0 0
85 20.78829 8.05343 58.96004 0 0 0
86 21.67909 7.73321 59.36201 0 0 0
87 22.31056 8.28317 59.99574 0 0 0
88 23.25478 8.37290 59.70274 0 0 0
89 24.20609 8.59630 59.87991 0 0 0
90 25.03013 8.32374 59.33524 0 0 0
91 25.89022 8.18142 59.91344 0 0 0
92 25.82520 8.86602 60.58911 0 0 0
93 25.74722 8.71774 61.60023 0 0 0
94 26.74597 8.42838 61.61635 0 0 0
95 27.36569 8.35524 62.40816 0 0 0
96 26.54637 8.87387 62.62171 0 0 0
97 27.23110 9.31163 63.05405 0 0 0
98 28.10934 9.06732 63.45951 0 0 0
99 29.05485 9.33869 63.58787 0 0 0
100 29.79186 9.53138 64.14889 0 0 0
101 29.50614 10.25418 64.82228 0 0 0
102 -1.18358 -0.97047 43.86962 0 0 0
103 -1.20110 -1.87325 43.59935 0 0 0
104 -0.33230 -2.33945 43.57830 0 0 0
105 -0.28189 -3.03286 44.27031 0 0 0
106 0.25561 -3.83905 44.32368 0 0 0
107 1.09435 -4.33450 44.00489 0 0 0
108 1.10334 -5.33179 43.82999 0 0 0
109 1.56260 -6.13116 43.93919 0 0 0
110 1.34109 -7.05866 44.13853 0 0 0
111 1.31403 -7.99082 43.89339 0 0 0
112 1.73514 -8.61994 43.33793 0 0 0
113 1.81606 -9.63719 43.18898 0 0 0
114 1.30920 -10.38808 43.42660 0 0 0
115 1.15206 -11.37542 43.55085 0 0 0
116 1.74227 -12.02485 43.17030 0 0 0
117 2.39015 -12.76303 42.96850 0 0 0
118 2.62303 -13.44015 42.29868 0 0 0
119 2.70741 -14.06603 41.46895 0 0 0
120 2.35305 -14.62953 40.72833 0 0 0
121 2.92749 -15.41524 40.32914 0 0 0
122 2.91547 -16.36933 40.06065 0 0 0
123 2.53541 -17.32666 40.33492 0 0 0
124 2.31327 -18.27777 40.45805 0 0 0
125 3.00414 -18.94550 40.56300 0 0 0
126 3.17772 -19.93942 40.47869 0 0 0
127 3.19350 -20.90489 40.41310 0 0 0
128 2.82805 -21.69688 40.12285 0 0 0
129 3.19366 -22.29051 39.46019 0 0 0
130 3.42206 -22.41301 38.54615 0 0 0
131 3.66230 -23.31450 38.27419 0 0 0
132 3.76706 -24.28594 38.32004 0 0 0
133 4.74100 -24.42507 38.32508 0 0 0
134 4.67469 -25.25218 38.94925 0 0 0
135 5.15012 -25.54780 39.68420 0 0 0
136 5.83365 -25.78284 40.34054 0 0 0
137 6.69132 -26.28195 40.07978 0 0 0
138 7.58682 -26.21628 39.63008 0 0 0
139 7.70136 -27.18278 39.18567 0 0 0
140 8.39823 -27.87302 38.95284 0 0 0
141 9.06013 -28.12095 38.20696 0 0 0
142 9.18917 -29.00598 37.91451 0 0 0
143 8.57572 -29.56368 37.45124 0 0 0
144 8.37127 -30.44077 37.19264 0 0 0
145 7.90233 -31.21169 36.80966 0 0 0
146 7.98470 -31.27320 35.83541 0 0 0
147 7.11626 -30.89386 35.38488 0 0 0
148 6.43687 -31.44028 35.00201 0 0 0
149 6.23407 -31.25453 34.04841 0 0 0
150 6.13235 -30.93558 33.20084 0 0 0
151 6.82245 -31.13172 32.50286 0 0 0
152 -2.11911 0.30829 44.44928 0 0 0
153 -2.76325 1.00129 44.51846 0 0 0
154 -3.74603 0.83402 44.42172 0 0 0
155 -4.55040 1.19913 43.90172 0 0 0
156 -5.53934 1.00076 43.92583 0 0 0
157 -6.38605 0.68817 43.55454 0 0 0
158 -6.78002 1.51330 43.13726 0 0 0
159 -7.67226 1.24293 43.64604 0 0 0
160 -8.46292 0.96863 44.14089 0 0 0
161 -9.44432 1.33240 44.10766 0 0 0
162 -10.20278 0.79487 44.09681 0 0 0
163 -11.20149 0.98543 43.93476 0 0 0
164 -11.86686 1.30228 43.31015 0 0 0
165 -12.00655 1.76319 44.13829 0 0 0
166 -12.91872 2.27570 44.64460 0 0 0
167 -13.89673 2.37222 44.98331 0 0 0
168 -14.43956 2.66492 45.83208 0 0 0
169 -15.29023 2.66477 46.18158 0 0 0
170 -16.10462 2.46226 46.63355 0 0 0
171 -16.73597 2.38173 47.31327 0 0 0
172 -17.44382 2.91478 46.99636 0 0 0
173 -18.42197 2.76525 46.97157 0 0 0
174 -19.43805 2.67961 47.28988 0 0 0
175 -20.26861 2.77857 47.77921 0 0 0
176 -20.57721 3.68356 48.01972 0 0 0
177 -21.56293 3.96421 48.46368 0 0 0
178 -22.08419 4.43714 49.17571 0 0 0
179 -22.79388 4.63256 49.81060 0 0 0
180 -23.75805 4.98628 49.93549 0 0 0
181 -24.22907 4.12636 50.28589 0 0 0
182 -24.87031 4.17154 50.99827 0 0 0
183 -25.81869 3.95763 51.13195 0 0 0
184 -26.36715 3.35584 51.66036 0 0 0
185 -27.06506 3.74981 52.18661 0 0 0
186 -26.99385 2.89050 52.54639 0 0 0
187 -27.39241 2.05447 52.66946 0 0 0
188 -28.42543 2.10813 52.79188 0 0 0
189 -29.06917 2.74991 53.11011 0 0 0
190 -29.76256 2.17787 53.69252 0 0 0
191 -30.49908 2.42121 54.31066 0 0 0
192 -30.82573 3.30791 54.08143 0 0 0
193 -31.48573 4.04364 54.27948 0 0 0
194 -32.17050 3.40061 54.49438 0 0 0
195 -32.49380 2.79880 55.20515 0 0 0
196 -32.88754 2.06945 55.73138 0 0 0
197 -33.80373 1.93509 55.68268 0 0 0
198 -33.67896 1.49116 56.54268 0 0 0
199 -33.63103 2.35368 56.97178 0 0 0
200 -32.66380 2.15484 57.09195 0 0 0
201 -31.79033 1.92342 56.71514 0 0 0
ITEM: TIMESTEP
4000
ITEM: NUMBER OF ATOMS
201
ITEM: BOX BOUNDS pp pp pp
-1.0000000000000000e+03 1.0000000000000000e+03
-1.0000000000000000e+03 1.0000000000000000e+03
-1.0000000000000000e+03 1.0000000000000000e+03