ITEM: TIMESTEP
0
ITEM: NUMBER OF ATOMS
301
ITEM: BOX BOUNDS pp pp pp
-1.0000000000000000e+03 1.0000000000000000e+03
-1.0000000000000000e+03 1.0000000000000000e+03
-1.0000000000000000e+03 1.0000000000000000e+03
ITEM: ATOMS id x y z ix iy iz
1 0.00000 0.00000 0.00000 0 0 0
2 0.00000 0.00000 1.00000 0 0 0
3 0.00000 -0.50000 1.86603 0 0 0
4 0.00000 0.00000 2.73205 0 0 0
5 0.00000 -0.50000 3.59808 0 0 0
6 0.00000 0.00000 4.46410 0 0 0
7 0.00000 -0.50000 5.33013 0 0 0
8 0.00000 0.00000 6.19615 0 0 0
9 0.00000 -0.50000 7.06218 0 0 0
10 0.00000 0.00000 7.92820 0 0 0
11 0.00000 -0.50000 8.79423 0 0 0
12 0.00000 0.00000 9.66025 0 0 0
13 0.00000 -0.50000 10.52628 0 0 0
14 0.00000 0.00000 11.39230 0 0 0
15 0.00000 -0.50000 12.25833 0 0 0
16 0.00000 0.00000 13.12436 0 0 0
17 0.00000 -0.50000 13.99038 0 0 0
18 0.00000 0.00000 14.85641 0 0 0
19 0.00000 -0.50000 15.72243 0 0 0
20 0.00000 0.00000 16.58846 0 0 0
21 0.00000 -0.50000 17.45448 0 0 0
22 0.00000 0.00000 18.32051 0 0 0
23 0.00000 -0.50000 19.18653 0 0 0
24 0.00000 0.00000 20.05256 0 0 0
25 0.00000 -0.50000 20.91858 0 0 0
26 0.00000 0.00000 21.78461 0 0 0
27 0.00000 -0.50000 22.65064 0 0 0
28 0.00000 0.00000 23.51666 0 0 0
29 0.00000 -0.50000 24.38269 0 0 0
30 0.00000 0.00000 25.24871 0 0 0
31 0.00000 -0.50000 26.11474 0 0 0
32 0.00000 0.00000 26.98076 0 0 0
33 0.00000 -0.50000 27.84679 0 0 0
34 0.00000 0.00000 28.71281 0 0 0
35 0.00000 -0.50000 29.57884 0 0 0
36 0.00000 0.00000 30.44486 0 0 0
37 0.00000 -0.50000 31.31089 0 0 0
38 0.00000 0.00000 32.17691 0 0 0
39 0.00000 -0.50000 33.04294 0 0 0
40 0.00000 0.00000 33.90897 0 0 0
41 0.00000 -0.50000 34.77499 0 0 0
42 0.00000 0.00000 35.64102 0 0 0
43 0.00000 -0.50000 36.50704 0 0 0
44 0.00000 0.00000 37.37307 0 0 0
45 0.00000 -0.50000 38.23909 0 0 0
46 0.00000 0.00000 39.10512 0 0 0
47 0.00000 -0.50000 39.97114 0 0 0
48 0.00000 0.00000 40.83717 0 0 0
49 0.00000 -0.50000 41.70319 0 0 0
50 0.00000 0.00000 42.56922 0 0 0
51 0.00000 -0.50000 43.43524 0 0 0
52 0.00000 0.00000 44.30127 0 0 0
53 0.00000 -0.50000 45.16730 0 0 0
54 0.00000 0.00000 46.03332 0 0 0
55 0.00000 -0.50000 46.89935 0 0 0
56 0.00000 0.00000 47.76537 0 0 0
57 0.00000 -0.50000 48.63140 0 0 0
58 0.00000 0.00000 49.49742 0 0 0
59 0.00000 -0.50000 50.36345 0 0 0
60 0.00000 0.00000 51.22947 0 0 0
61 0.00000 -0.50000 52.09550 0 0 0
62 0.00000 0.00000 52.96152 0 0 0
63 0.00000 -0.50000 53.82755 0 0 0
64 0.00000 0.00000 54.69358 0 0 0
65 0.00000 -0.50000 55.55960 0 0 0
66 0.00000 0.00000 56.42563 0 0 0
67 0.00000 -0.50000 57.29165 0 0 0
68 0.00000 0.00000 58.15768 0 0 0
69 0.00000 -0.50000 59.02370 0 0 0
70 0.00000 0.00000 59.88973 0 0 0
71 0.00000 -0.50000 60.75575 0 0 0
72 0.00000 0.00000 61.62178 0 0 0
73 0.00000 -0.50000 62.48780 0 0 0
74 0.00000 0.00000 63.35383 0 0 0
75 0.00000 -0.50000 64.21985 0 0 0
76 0.00000 0.00000 65.08588 0 0 0
77 -0.94240 0.18531 65.36434 0 0 0
78 -1.88480 0.20655 65.69815 0 0 0
79 -2.82721 0.50626 65.84665 0 0 0
80 -3.76961 0.52751 66.18046 0 0 0
81 -4.71201 0.82722 66.32896 0 0 0
82 -5.65441 0.84847 66.66276 0 0 0
83 -6.59681 1.14818 66.81126 0 0 0
84 -7.53922 1.16943 67.14507 0 0 0
85 -8.48162 1.46914 67.29357 0 0 0
86 -9.42402 1.49039 67.62738 0 0 0
87 -10.36642 1.79010 67.77588 0 0 0
88 -11.30882 1.81135 68.10969 0 0 0
89 -12.25123 2.11106 68.25819 0 0 0
90 -13.19363 2.13231 68.59200 0 0 0
91 -14.13603 2.43202 68.74050 0 0 0
92 -15.07843 2.45327 69.07430 0 0 0
93 -16.02083 2.75298 69.22281 0 0 0
94 -16.96324 2.77423 69.55661 0 0 0
95 -17.90564 3.07394 69.70511 0 0 0
96 -18.84804 3.09518 70.03892 0 0 0
97 -19.79044 3.39489 70.18742 0 0 0
98 -20.73284 3.41614 70.52123 0 0 0
99 -21.67525 3.71585 70.66973 0 0 0
100 -22.61765 3.73710 71.00354 0 0 0
101 -23.56005 4.03681 71.15204 0 0 0
102 -24.50245 4.05806 71.48584 0 0 0
103 -25.44485 4.35777 71.63435 0 0 0
104 -26.38725 4.37902 71.96815 0 0 0
105 -27.32966 4.67873 72.11665 0 0 0
106 -28.27206 4.69998 72.45046 0 0 0
107 -29.21446 4.99969 72.59896 0 0 0
108 -30.15686 5.02094 72.93277 0 0 0
109 -31.09926 5.32065 73.08127 0 0 0
110 -32.04167 5.34190 73.41508 0 0 0
111 -32.98407 5.64161 73.56358 0 0 0
112 -33.92647 5.66285 73.89738 0 0 0
113 -34.86887 5.96256 74.04589 0 0 0
114 -35.81127 5.98381 74.37969 0 0 0
115 -36.75368 6.28352 74.52819 0 0 0
116 -37.69608 6.30477 74.86200 0 0 0
117 -38.63848 6.60448 75.01050 0 0 0
118 -39.58088 6.62573 75.34431 0 0 0
119 -40.52328 6.92544 75.49281 0 0 0
120 -41.46569 6.94669 75.82662 0 0 0
121 -42.40809 7.24640 75.97512 0 0 0
122 -43.35049 7.26765 76.30892 0 0 0
123 -44.29289 7.56736 76.45743 0 0 0
124 -45.23529 7.58861 76.79123 0 0 0
125 -46.17770 7.88832 76.93973 0 0 0
126 -47.12010 7.90957 77.27354 0 0 0
127 -48.06250 8.20928 77.42204 0 0 0
128 -49.00490 8.23053 77.75585 0 0 0
129 -49.94730 8.53024 77.90435 0 0 0
130 -50.88971 8.55148 78.23816 0 0 0
131 -51.83211 8.85119 78.38666 0 0 0
132 -52.77451 8.87244 78.72046 0 0 0
133 -53.71691 9.17215 78.86897 0 0 0
134 -54.65931 9.19340 79.20277 0 0 0
135 -55.60172 9.49311 79.35127 0 0 0
136 -56.54412 9.51436 79.68508 0 0 0
137 -57.48652 9.81407 79.83358 0 0 0
138 -58.42892 9.83532 80.16739 0 0 0
139 -59.37132 10.13503 80.31589 0 0 0
140 -60.31373 10.15628 80.64970 0 0 0
141 -61.25613 10.45599 80.79820 0 0 0
142 -62.19853 10.47724 81.13201 0 0 0
143 -63.14093 10.77695 81.28051 0 0 0
144 -64.08333 10.79820 81.61431 0 0 0
145 -65.02574 11.09791 81.76281 0 0 0
146 -65.96814 11.11915 82.09662 0 0 0
147 -66.91054 11.41886 82.24512 0 0 0
148 -67.85294 11.44011 82.57893 0 0 0
149 -68.79534 11.73982 82.72743 0 0 0
150 -69.73775 11.76107 83.06124 0 0 0
151 -70.68015 12.06078 83.20974 0 0 0
152 0.48960 0.86450 64.97221 0 0 0
153 0.97921 1.67002 65.30601 0 0 0
154 1.46881 2.36187 64.77532 0 0 0
155 1.95841 3.16739 65.10912 0 0 0
156 2.44802 3.85923 64.57843 0 0 0
157 2.93762 4.66475 64.91223 0 0 0
158 3.42722 5.35660 64.38154 0 0 0
159 3.91683 6.16212 64.71534 0 0 0
160 4.40643 6.85396 64.18465 0 0 0
161 4.89603 7.65948 64.51845 0 0 0
162 5.38564 8.35133 63.98776 0 0 0
163 5.87524 9.15685 64.32156 0 0 0
164 6.36484 9.84869 63.79086 0 0 0
165 6.85444 10.65421 64.12467 0 0 0
166 7.34405 11.34606 63.59397 0 0 0
167 7.83365 12.15157 63.92778 0 0 0
168 8.32325 12.84342 63.39708 0 0 0
169 8.81286 13.64894 63.73089 0 0 0
170 9.30246 14.34078 63.20019 0 0 0
171 9.79206 15.14630 63.53400 0 0 0
172 10.28167 15.83815 63.00330 0 0 0
173 10.77127 16.64367 63.33711 0 0 0
174 11.26087 17.33551 62.80641 0 0 0
175 11.75048 18.14103 63.14022 0 0 0
176 12.24008 18.83288 62.60952 0 0 0
177 12.72968 19.63840 62.94333 0 0 0
178 13.21929 20.33024 62.41263 0 0 0
179 13.70889 21.13576 62.74644 0 0 0
180 14.19849 21.82761 62.21574 0 0 0
181 14.68810 22.63313 62.54955 0 0 0
182 15.17770 23.32497 62.01885 0 0 0
183 15.66730 24.13049 62.35266 0 0 0
184 16.15691 24.82234 61.82196 0 0 0
185 16.64651 25.62785 62.15577 0 0 0
186 17.13611 26.31970 61.62507 0 0 0
187 17.62572 27.12522 61.95888 0 0 0
188 18.11532 27.81706 61.42818 0 0 0
189 18.60492 28.62258 61.76199 0 0 0
190 19.09453 29.31443 61.23129 0 0 0
191 19.58413 30.11995 61.56510 0 0 0
192 20.07373 30.81179 61.03440 0 0 0
193 20.56333 31.61731 61.36821 0 0 0
194 21.05294 32.30916 60.83751 0 0 0
195 21.54254 33.11468 61.17132 0 0 0
196 22.03214 33.80652 60.64062 0 0 0
197 22.52175 34.61204 60.97443 0 0 0
198 23.01135 35.30389 60.44373 0 0 0
199 23.50095 36.10941 60.77754 0 0 0
200 23.99056 36.80125 60.24684 0 0 0
201 24.48016 37.60677 60.58065 0 0 0
202 24.96976 38.29862 60.04995 0 0 0
203 25.45937 39.10414 60.38376 0 0 0
204 25.94897 39.79598 59.85306 0 0 0
205 26.43857 40.60150 60.18687 0 0 0
206 26.92818 41.29334 59.65617 0 0 0
207 27.41778 42.09886 59.98998 0 0 0
208 27.90738 42.79071 59.45928 0 0 0
209 28.39699 43.59623 59.79309 0 0 0
210 28.88659 44.28807 59.26239 0 0 0
211 29.37619 45.09359 59.59620 0 0 0
212 29.86580 45.78544 59.06550 0 0 0
213 30.35540 46.59096 59.39931 0 0 0
214 30.84500 47.28280 58.86861 0 0 0
215 31.33461 48.08832 59.20242 0 0 0
216 31.82421 48.78017 58.67172 0 0 0
217 32.31381 49.58569 59.00553 0 0 0
218 32.80342 50.27753 58.47483 0 0 0
219 33.29302 51.08305 58.80864 0 0 0
220 33.78262 51.77490 58.27794 0 0 0
221 34.27222 52.58042 58.61175 0 0 0
222 34.76183 53.27226 58.08105 0 0 0
223 35.25143 54.07778 58.41486 0 0 0
224 35.74103 54.76962 57.88416 0 0 0
225 36.23064 55.57514 58.21797 0 0 0
226 36.72024 56.26699 57.68727 0 0 0
227 0.45280 -0.54910 65.78835 0 0 0
228 0.90560 -1.37587 66.12216 0 0 0
229 1.35840 -1.50017 67.00506 0 0 0
230 1.81119 -2.32694 67.33887 0 0 0
231 2.26399 -2.45123 68.22178 0 0 0
232 2.71679 -3.27800 68.55558 0 0 0
233 3.16959 -3.40230 69.43849 0 0 0
234 3.62239 -4.22907 69.77229 0 0 0
235 4.07519 -4.35337 70.65520 0 0 0
236 4.52799 -5.18014 70.98901 0 0 0
237 4.98079 -5.30444 71.87191 0 0 0
238 5.43358 -6.13121 72.20572 0 0 0
239 5.88638 -6.25551 73.08863 0 0 0
240 6.33918 -7.08227 73.42243 0 0 0
241 6.79198 -7.20657 74.30534 0 0 0
242 7.24478 -8.03334 74.63915 0 0 0
243 7.69758 -8.15764 75.52205 0 0 0
244 8.15038 -8.98441 75.85586 0 0 0
245 8.60318 -9.10871 76.73877 0 0 0
246 9.05597 -9.93548 77.07257 0 0 0
247 9.50877 -10.05978 77.95548 0 0 0
248 9.96157 -10.88654 78.28929 0 0 0
249 10.41437 -11.01084 79.17219 0 0 0
250 10.86717 -11.83761 79.50600 0 0 0
251 11.31997 -11.96191 80.38890 0 0 0
252 11.77277 -12.78868 80.72271 0 0 0
253 12.22557 -12.91298 81.60562 0 0 0
254 12.67836 -13.73975 81.93942 0 0 0
255 13.13116 -13.86405 82.82233 0 0 0
256 13.58396 -14.69081 83.15614 0 0 0
257 14.03676 -14.81511 84.03904 0 0 0
258 14.48956 -15.64188 84.37285 0 0 0
259 14.94236 -15.76618 85.25576 0 0 0
260 15.39516 -16.59295 85.58956 0 0 0
261 15.84796 -16.71725 86.47247 0 0 0
262 16.30075 -17.54402 86.80628 0 0 0
263 16.75355 -17.66832 87.68918 0 0 0
264 17.20635 -18.49509 88.02299 0 0 0
265 17.65915 -18.61938 88.90589 0 0 0
266 18.11195 -19.44615 89.23970 0 0 0
267 18.56475 -19.57045 90.12261 0 0 0
268 19.01755 -20.39722 90.45641 0 0 0
269 19.47035 -20.52152 91.33932 0 0 0
270 19.92314 -21.34829 91.67313 0 0 0
271 20.37594 -21.47259 92.55603 0 0 0
272 20.82874 -22.29936 92.88984 0 0 0
273 21.28154 -22.42365 93.77275 0 0 0
274 21.73434 -23.25042 94.10655 0 0 0
275 22.18714 -23.37472 94.98946 0 0 0
276 22.63994 -24.20149 95.32327 0 0 0
277 23.09274 -24.32579 96.20617 0 0 0
278 23.54553 -25.15256 96.53998 0 0 0
279 23.99833 -25.27686 97.42288 0 0 0
280 24.45113 -26.10363 97.75669 0 0 0
281 24.90393 -26.22793 98.63960 0 0 0
282 25.35673 -27.05469 98.97340 0 0 0
283 25.80953 -27.17899 99.85631 0 0 0
284 26.26233 -28.00576 100.19012 0 0 0
285 26.71513 -28.13006 101.07302 0 0 0
286 27.16792 -28.95683 101.40683 0 0 0
287 27.62072 -29.08113 102.28974 0 0 0
288 28.07352 -29.90790 102.62354 0 0 0
289 28.52632 -30.03220 103.50645 0 0 0
290 28.97912 -30.85896 103.84026 0 0 0
291 29.43192 -30.98326 104.72316 0 0 0
292 29.88472 -31.81003 105.05697 0 0 0
293 30.33752 -31.93433 105.93987 0 0 0
294 30.79031 -32.76110 106.27368 0 0 0
295 31.24311 -32.88540 107.15659 0 0 0
296 31.69591 -33.71217 107.49039 0 0 0
297 32.14871 -33.83647 108.37330 0 0 0
298 32.60151 -34.66324 108.70711 0 0 0
299 33.05431 -34.78753 109.59001 0 0 0
300 33.50711 -35.61430 109.92382 0 0 0
301 33.95991 -35.73860 110.80673 0 0 0
ITEM: TIMESTEP
1000
ITEM: NUMBER OF ATOMS
301
ITEM: BOX BOUNDS pp pp pp
-1.0000000000000000e+03 1.0000000000000000e+03
-1.0000000000000000e+03 1.0000000000000000e+03
-1.0000000000000000e+03 1.0000000000000000e+03
ITEM: ATOMS id x y z ix iy iz
1 -0.56002 2.22670 4.84849 0 0 0
2 -0.30608 1.23991 4.98951 0 0 0
3 -1.18553 1.00881 5.36685 0 0 0
4 -1.45644 0.42280 6.03235 0 0 0
5 -1.71723 -0.07964 6.87164 0 0 0
6 -2.03777 -0.37914 7.72454 0 0 0
7 -2.32719 -0.29440 8.64408 0 0 0
8 -1.53972 -0.40884 9.11294 0 0 0
9 -1.22595 -1.34517 9.49373 0 0 0
10 -1.08350 -1.61815 10.43745 0 0 0
11 -0.86027 -2.04594 11.21347 0 0 0
12 -1.47844 -1.69408 12.02706 0 0 0
13 -1.17201 -1.10068 12.73798 0 0 0
14 -0.64600 -0.99242 13.55196 0 0 0
15 -1.14503 -0.69612 14.35052 0 0 0
16 -1.54210 -0.57243 15.19321 0 0 0
17 -2.35988 -0.05586 15.36438 0 0 0
18 -2.24880 -0.02914 16.41562 0 0 0
19 -1.68222 0.47507 17.02764 0 0 0
20 -1.77178 0.30815 18.01745 0 0 0
21 -1.88580 0.90568 18.81031 0 0 0
22 -0.92471 0.89130 19.24900 0 0 0
23 -0.15331 0.60837 19.78605 0 0 0
24 0.36411 -0.08391 20.18307 0 0 0
25 0.22322 -0.21287 21.13323 0 0 0
26 0.04721 0.05215 22.07261 0 0 0
27 -0.42016 -0.59148 22.69619 0 0 0
28 -0.14750 -0.07157 23.50604 0 0 0
29 -0.11200 0.13482 24.42261 0 0 0
30 -0.18120 -0.11290 25.33671 0 0 0
31 -0.66512 0.01627 26.20322 0 0 0
32 -0.85487 -0.09412 27.17174 0 0 0
33 -0.61308 -0.82910 27.84204 0 0 0
34 -0.34755 -0.62583 28.79308 0 0 0
35 -0.18108 -0.57312 29.77711 0 0 0
36 -0.52559 -0.79808 30.73127 0 0 0
37 -0.43484 -0.75519 31.67312 0 0 0
38 -0.76456 -0.20766 32.52687 0 0 0
39 -0.27149 -0.55204 33.28204 0 0 0
40 0.18146 -1.04784 33.99229 0 0 0
41 0.88097 -1.13006 34.56954 0 0 0
42 1.36221 -0.32455 34.94372 0 0 0
43 1.14461 -0.01351 35.83722 0 0 0
44 1.32969 0.79803 36.50901 0 0 0
45 1.81229 1.32506 37.12814 0 0 0
46 1.49029 1.62864 38.07333 0 0 0
47 1.42885 1.33199 39.01548 0 0 0
48 1.47252 1.14835 40.05448 0 0 0
49 1.63727 0.60080 40.90911 0 0 0
50 1.28374 -0.03253 41.60186 0 0 0
51 0.80314 0.30493 42.50655 0 0 0
52 0.80961 0.44009 43.54707 0 0 0
53 0.97742 0.56864 44.47646 0 0 0
54 0.73045 0.80659 45.42524 0 0 0
55 0.78654 1.32179 46.27894 0 0 0
56 0.40317 1.28233 47.19897 0 0 0
57 0.52923 1.03027 48.15147 0 0 0
58 0.70699 1.03009 49.14328 0 0 0
59 0.88887 1.01041 50.11198 0 0 0
60 0.71670 0.84126 51.09331 0 0 0
61 0.80026 0.11792 51.71512 0 0 0
62 0.91722 0.08690 52.74455 0 0 0
63 0.81512 -0.21897 53.73293 0 0 0
64 0.35240 0.04231 54.57904 0 0 0
65 0.09746 -0.12107 55.60891 0 0 0
66 -0.15406 0.05944 56.55303 0 0 0
67 -0.21669 -0.41787 57.44956 0 0 0
68 -0.16867 -0.10273 58.44295 0 0 0
69 0.55859 -0.02562 59.23579 0 0 0
70 0.16959 -0.12081 60.13865 0 0 0
71 0.40375 0.27863 61.00508 0 0 0
72 0.57479 0.67882 61.92297 0 0 0
73 0.20567 1.08410 62.74612 0 0 0
74 -0.32997 1.02852 63.59790 0 0 0
75 -0.54770 1.09544 64.57575 0 0 0
76 -0.63552 1.38459 65.56816 0 0 0
77 -1.42164 1.87957 65.79606 0 0 0
78 -2.24523 1.46916 66.13389 0 0 0
79 -3.26198 1.20022 66.31323 0 0 0
80 -4.28696 1.40959 66.53452 0 0 0
81 -5.21777 1.37328 66.65095 0 0 0
82 -6.07411 1.11331 67.07881 0 0 0
83 -7.03281 1.09079 67.31676 0 0 0
84 -8.01564 0.99740 67.53726 0 0 0
85 -9.08612 1.11363 67.69241 0 0 0
86 -9.55681 1.92346 67.84655 0 0 0
87 -10.55007 1.91346 68.04307 0 0 0
88 -11.44912 2.14705 67.81887 0 0 0
89 -12.34043 2.27150 68.13045 0 0 0
90 -13.42332 2.10830 68.09696 0 0 0
91 -14.40956 2.01637 68.17849 0 0 0
92 -15.37541 2.28850 68.10376 0 0 0
93 -16.35561 2.37448 68.36454 0 0 0
94 -17.27202 1.94507 68.51585 0 0 0
95 -18.13958 2.36801 68.74065 0 0 0
96 -18.87991 2.44058 69.38638 0 0 0
97 -19.72033 2.97857 69.85772 0 0 0
98 -20.56605 2.90726 70.27801 0 0 0
99 -21.60613 2.78910 70.07692 0 0 0
100 -22.49069 2.65270 70.60843 0 0 0
101 -23.42555 2.68522 70.88811 0 0 0
102 -24.03912 3.45672 71.15623 0 0 0
103 -24.72912 3.82287 71.82055 0 0 0
104 -25.71747 3.98140 72.03270 0 0 0
105 -26.60175 4.45808 71.92329 0 0 0
106 -27.40987 4.77977 72.34401 0 0 0
107 -28.29295 5.03449 72.53562 0 0 0
108 -29.21552 5.00942 72.72161 0 0 0
109 -29.87730 5.67780 73.00103 0 0 0
110 -30.85364 6.03723 73.00058 0 0 0
111 -31.73600 6.30271 73.22460 0 0 0
112 -32.63345 6.19791 73.43102 0 0 0
113 -33.30868 6.23860 74.22409 0 0 0
114 -34.25692 6.54241 74.33955 0 0 0
115 -34.88208 6.39425 75.10376 0 0 0
116 -35.86639 6.54682 75.60253 0 0 0
117 -36.61204 7.00442 75.90687 0 0 0
118 -37.58696 6.99841 75.76516 0 0 0
119 -38.51872 7.18624 75.91162 0 0 0
120 -39.41992 6.95376 75.46259 0 0 0
121 -40.49340 7.01098 75.52152 0 0 0
122 -41.45845 6.93268 75.48351 0 0 0
123 -42.29302 6.84599 75.99189 0 0 0
124 -42.74665 6.45675 76.79693 0 0 0
125 -43.35631 5.86022 77.44394 0 0 0
126 -43.93347 6.40919 77.93935 0 0 0
127 -44.78658 5.89761 77.71834 0 0 0
128 -45.78912 5.97500 77.95730 0 0 0
129 -46.74301 6.10146 77.87965 0 0 0
130 -47.58308 6.49933 77.71584 0 0 0
131 -48.55822 6.75116 77.69588 0 0 0
132 -48.70148 7.59434 78.10500 0 0 0
133 -49.55470 8.02913 78.09936 0 0 0
134 -50.35559 8.52308 77.90854 0 0 0
135 -50.89848 8.43589 78.77528 0 0 0
136 -51.84000 8.57518 78.64432 0 0 0
137 -52.71559 8.66664 79.04715 0 0 0
138 -53.50214 9.23116 79.06238 0 0 0
139 -54.45890 9.49291 78.91270 0 0 0
140 -55.32084 9.92540 78.71529 0 0 0
141 -56.22822 10.31711 78.92799 0 0 0
142 -56.78992 10.37425 78.16647 0 0 0
143 -57.73456 10.48842 78.11230 0 0 0
144 -57.63660 10.53856 79.07901 0 0 0
145 -58.46355 10.30542 79.53262 0 0 0
146 -59.12788 10.35110 80.25453 0 0 0
147 -60.11208 10.54227 80.63247 0 0 0
148 -61.03329 10.74012 80.80318 0 0 0
149 -61.79394 11.30248 80.82096 0 0 0
150 -61.84963 11.75845 79.91215 0 0 0
151 -62.22017 11.54077 78.99556 0 0 0
152 0.29522 1.32863 65.29139 0 0 0
153 0.94058 1.97859 64.77315 0 0 0
154 1.74023 2.60187 64.60725 0 0 0
155 2.63590 2.91675 64.66604 0 0 0
156 3.16527 3.69402 65.01938 0 0 0
157 3.67103 4.49356 64.59347 0 0 0
158 4.35153 5.18012 64.52986 0 0 0
159 4.62674 6.04947 64.19706 0 0 0
160 4.43615 6.95416 63.94504 0 0 0
161 4.37472 7.51472 63.13274 0 0 0
162 4.70676 8.41842 62.92351 0 0 0
163 5.28317 8.93121 62.30918 0 0 0
164 5.79190 9.68759 62.03846 0 0 0
165 6.60006 10.29933 62.28128 0 0 0
166 7.55497 10.65946 62.39337 0 0 0
167 8.33591 11.28645 62.18717 0 0 0
168 8.56398 12.14823 61.75184 0 0 0
169 8.96473 13.04243 61.70085 0 0 0
170 9.23124 13.56728 62.60588 0 0 0
171 9.94401 14.32419 62.84689 0 0 0
172 10.28884 15.19583 62.76473 0 0 0
173 10.79554 15.98869 62.42215 0 0 0
174 11.41275 16.69612 62.68526 0 0 0
175 11.81052 17.47227 63.14623 0 0 0
176 12.20328 18.32546 63.20658 0 0 0
177 12.48592 19.27808 63.28756 0 0 0
178 13.06997 20.04259 63.33442 0 0 0
179 13.53316 20.86431 63.64457 0 0 0
180 14.48550 21.05487 63.82199 0 0 0
181 14.94622 22.05406 63.63209 0 0 0
182 14.98731 23.00785 63.31131 0 0 0
183 15.37441 23.85475 62.94324 0 0 0
184 15.44748 24.81452 62.72290 0 0 0
185 15.56473 25.72878 62.35573 0 0 0
186 16.27873 26.28125 61.97442 0 0 0
187 17.06726 26.90551 62.12188 0 0 0
188 17.00226 27.92609 62.11036 0 0 0
189 17.61483 28.73993 62.06778 0 0 0
190 18.03545 29.61506 62.14717 0 0 0
191 18.84480 30.14572 62.06493 0 0 0
192 19.64700 30.67302 62.02127 0 0 0
193 20.06734 31.43965 62.41933 0 0 0
194 20.77576 32.06335 62.80742 0 0 0
195 21.33054 32.97069 62.85477 0 0 0
196 21.89605 33.68675 62.49298 0 0 0
197 22.21458 34.55544 62.73457 0 0 0
198 23.01771 35.02553 62.60152 0 0 0
199 23.76328 35.61443 62.86520 0 0 0
200 24.30639 36.46980 62.79457 0 0 0
201 24.44531 37.12523 61.99723 0 0 0
202 24.45484 37.92159 61.46860 0 0 0
203 24.82400 38.71624 61.06969 0 0 0
204 24.97715 39.32731 60.33383 0 0 0
205 25.66771 40.10996 60.37369 0 0 0
206 26.48445 40.12317 59.80513 0 0 0
207 27.04331 40.92876 59.51732 0 0 0
208 27.42431 41.72818 59.00085 0 0 0
209 27.44599 42.66756 59.34605 0 0 0
210 27.41813 43.64973 59.43158 0 0 0
211 27.99043 44.43468 59.16050 0 0 0
212 28.04632 45.09937 58.50492 0 0 0
213 28.49826 45.87490 57.99361 0 0 0
214 29.25423 46.60037 57.74909 0 0 0
215 29.85013 47.36632 57.54516 0 0 0
216 30.01702 48.27674 57.44521 0 0 0
217 30.49621 49.12586 57.62456 0 0 0
218 30.87756 50.10550 57.64915 0 0 0
219 31.73131 50.06965 57.15183 0 0 0
220 32.53134 50.54987 56.94234 0 0 0
221 33.24537 50.84630 57.57544 0 0 0
222 33.55234 51.11536 58.46363 0 0 0
223 34.36682 51.06267 58.97285 0 0 0
224 34.61554 51.83097 59.59244 0 0 0
225 35.19054 52.62013 59.78314 0 0 0
226 36.05387 53.05428 59.92167 0 0 0
227 -0.25652 0.53670 65.84914 0 0 0
228 0.12044 -0.10124 66.50530 0 0 0
229 0.63879 -0.62375 67.09746 0 0 0
230 1.38083 -0.38135 67.66215 0 0 0
231 1.65848 -0.77284 68.59072 0 0 0
232 1.69224 -1.43209 69.32815 0 0 0
233 2.40092 -2.01746 70.02189 0 0 0
234 2.76943 -2.72216 70.71797 0 0 0
235 3.09230 -3.34795 71.44973 0 0 0
236 3.87632 -3.86857 71.80432 0 0 0
237 3.74000 -4.57250 72.42401 0 0 0
238 4.24378 -5.26736 72.89061 0 0 0
239 4.95870 -5.44459 73.64286 0 0 0
240 5.26815 -5.33456 74.57788 0 0 0
241 5.63917 -5.96562 75.22405 0 0 0
242 6.22404 -6.50618 75.73873 0 0 0
243 6.73596 -6.96346 76.33115 0 0 0
244 7.18901 -7.53817 77.09549 0 0 0
245 7.96845 -8.11677 77.38098 0 0 0
246 8.23277 -8.71331 78.09101 0 0 0
247 8.42249 -9.63459 78.54211 0 0 0
248 9.26318 -9.54417 78.91586 0 0 0
249 9.84136 -10.17905 79.53880 0 0 0
250 10.39267 -10.81178 80.02889 0 0 0
251 10.80169 -11.05712 80.87464 0 0 0
252 10.50884 -11.48166 81.65003 0 0 0
253 11.13626 -11.84976 82.38039 0 0 0
254 11.38275 -12.37398 83.19893 0 0 0
255 12.01588 -12.84526 83.67063 0 0 0
256 11.79498 -13.31223 84.54146 0 0 0
257 12.52181 -13.63336 85.12540 0 0 0
258 13.00769 -13.84986 86.01723 0 0 0
259 13.75197 -14.53542 86.03967 0 0 0
260 14.38564 -15.19696 86.51272 0 0 0
261 14.40296 -16.14479 86.80039 0 0 0
262 15.32379 -16.31969 87.18458 0 0 0
263 15.42611 -16.86451 87.95863 0 0 0
264 16.11546 -17.34022 88.60311 0 0 0
265 16.55221 -17.98834 89.13619 0 0 0
266 17.13653 -18.83045 89.22001 0 0 0
267 17.95856 -19.38094 89.36561 0 0 0
268 18.35529 -20.13642 89.84529 0 0 0
269 18.32035 -21.05124 90.31618 0 0 0
270 18.40056 -22.04225 90.43162 0 0 0
271 19.09308 -22.28221 91.06163 0 0 0
272 19.32075 -22.67110 91.90987 0 0 0
273 19.72613 -23.41341 92.39447 0 0 0
274 19.67300 -23.46589 93.35037 0 0 0
275 20.16721 -23.28635 94.19035 0 0 0
276 20.49699 -23.44400 95.20694 0 0 0
277 20.85624 -23.19415 96.16366 0 0 0
278 21.62025 -23.32727 96.73975 0 0 0
279 22.20854 -23.97506 97.35897 0 0 0
280 22.96923 -24.51151 97.73871 0 0 0
281 23.76870 -25.05644 98.11080 0 0 0
282 24.00055 -25.19437 99.17999 0 0 0
283 24.54408 -25.96543 99.64864 0 0 0
284 24.66893 -26.55867 100.39560 0 0 0
285 25.59801 -26.75226 99.89873 0 0 0
286 26.36988 -27.04889 100.35266 0 0 0
287 26.85105 -27.07834 101.15109 0 0 0
288 27.56977 -27.32427 101.74232 0 0 0
289 28.14213 -27.75703 102.37561 0 0 0
290 28.75193 -28.39726 102.04766 0 0 0
291 29.60514 -28.01946 102.30513 0 0 0
292 30.31826 -28.69422 102.06661 0 0 0
293 30.48654 -28.78574 103.06237 0 0 0
294 30.70402 -29.48859 103.72511 0 0 0
295 31.10990 -29.93195 104.48237 0 0 0
296 31.09750 -30.88071 104.19361 0 0 0
297 30.63468 -31.66877 104.54976 0 0 0
298 30.65612 -32.53872 104.10661 0 0 0
299 30.66998 -33.43200 104.55049 0 0 0
300 30.58372 -34.26025 105.02418 0 0 0
301 30.90865 -34.75365 105.81808 0 0 0
ITEM: TIMESTEP
2000
ITEM: NUMBER OF ATOMS
301
ITEM: BOX BOUNDS pp pp pp
-1.0000000000000000e+03 1.0000000000000000e+03
-1.0000000000000000e+03 1.0000000000000000e+03
-1.0000000000000000e+03 1.0000000000000000e+03
ITEM: ATOMS id x y z ix iy iz
1 -5.42862 -3.21567 6.48692 0 0 0
2 -5.13983 -2.33961 6.70171 0 0 0
3 -4.93878 -1.73970 7.57597 0 0 0
4 -5.39335 -1.06188 8.12249 0 0 0
5 -5.07820 -1.37446 9.07853 0 0 0
6 -5.27219 -1.76336 9.94011 0 0 0
7 -5.05859 -1.80917 10.93930 0 0 0
8 -4.08353 -1.80813 10.93068 0 0 0
9 -3.31488 -2.36299 10.87215 0 0 0
10 -2.83791 -1.66619 11.35644 0 0 0
11 -2.22399 -1.70422 12.10820 0 0 0
12 -2.02684 -1.35809 12.97973 0 0 0
13 -2.26830 -0.82835 13.77811 0 0 0
14 -3.24334 -0.75805 13.90164 0 0 0
15 -3.06732 -0.03681 14.56070 0 0 0
16 -3.71384 0.51863 15.19264 0 0 0
17 -3.46319 0.24953 16.15729 0 0 0
18 -3.80265 0.22884 17.08040 0 0 0
19 -4.14892 0.64650 17.91490 0 0 0
20 -3.52812 0.29546 18.55132 0 0 0
21 -3.51420 0.89112 19.35850 0 0 0
22 -3.33142 0.93530 20.32786 0 0 0
23 -3.29769 0.98440 21.30381 0 0 0
24 -2.40194 1.03460 21.57579 0 0 0
25 -1.71561 1.43652 22.17415 0 0 0
26 -1.06179 1.04324 22.91233 0 0 0
27 -0.50985 0.33630 23.35884 0 0 0
28 -1.06040 0.16515 24.19190 0 0 0
29 -0.69378 -0.38793 25.01603 0 0 0
30 -1.44704 -0.19537 25.63719 0 0 0
31 -1.67445 0.07586 26.62132 0 0 0
32 -1.77024 0.25637 27.59673 0 0 0
33 -1.93491 0.31101 28.55594 0 0 0
34 -1.03831 0.21581 28.99900 0 0 0
35 -0.60058 -0.31889 29.72956 0 0 0
36 -0.77812 -0.65371 30.60426 0 0 0
37 -1.33559 0.06377 31.01294 0 0 0
38 -1.84491 -0.06194 31.82062 0 0 0
39 -1.32587 -0.34184 32.67302 0 0 0
40 -1.29830 -0.51167 33.64246 0 0 0
41 -1.40132 -0.57100 34.52602 0 0 0
42 -1.46588 -0.23695 35.42999 0 0 0
43 -1.39794 -0.19452 36.37745 0 0 0
44 -1.30485 0.13957 37.36253 0 0 0
45 -1.60091 0.73404 38.21756 0 0 0
46 -1.65227 0.27860 39.01903 0 0 0
47 -2.05635 0.50029 39.96429 0 0 0
48 -1.90328 0.77040 40.91118 0 0 0
49 -2.06995 0.89328 41.89019 0 0 0
50 -1.46735 0.85717 42.70828 0 0 0
51 -1.20872 1.66621 43.25733 0 0 0
52 -1.04629 1.91091 44.20794 0 0 0
53 -0.55811 2.03413 45.02614 0 0 0
54 -0.26784 1.94399 45.97691 0 0 0
55 -0.48662 1.79419 46.95130 0 0 0
56 -0.20109 1.57238 47.84230 0 0 0
57 -0.62209 1.63209 48.73819 0 0 0
58 -0.19651 2.18650 49.55879 0 0 0
59 0.39770 2.10775 50.33601 0 0 0
60 0.56751 2.02477 51.35457 0 0 0
61 0.65147 1.71773 52.31664 0 0 0
62 0.84581 0.94298 52.95868 0 0 0
63 0.74685 0.30539 53.65668 0 0 0
64 0.92877 0.10392 54.59791 0 0 0
65 0.65799 0.34413 55.50914 0 0 0
66 1.09097 0.83322 56.28106 0 0 0
67 0.59285 0.80478 57.09315 0 0 0
68 1.02619 0.77146 58.03328 0 0 0
69 1.16927 0.37556 58.91963 0 0 0
70 1.22647 0.51804 59.95634 0 0 0
71 1.16326 0.41387 61.01904 0 0 0
72 1.02551 0.06525 61.96909 0 0 0
73 0.44999 0.71055 62.40160 0 0 0
74 0.47176 1.23203 63.19861 0 0 0
75 0.56782 1.52295 64.06568 0 0 0
76 -0.11769 1.75068 64.86874 0 0 0
77 -1.10890 1.89185 65.22659 0 0 0
78 -1.86541 2.31782 65.62193 0 0 0
79 -2.76136 2.58896 66.03342 0 0 0
80 -3.80294 2.62815 66.00724 0 0 0
81 -4.76098 2.36027 66.03849 0 0 0
82 -5.79275 2.11314 66.00980 0 0 0
83 -6.68803 2.13049 66.52472 0 0 0
84 -7.48803 1.75023 66.92366 0 0 0
85 -8.07452 2.02204 67.63070 0 0 0
86 -9.10663 1.89156 67.41585 0 0 0
87 -10.13838 1.89990 67.61116 0 0 0
88 -11.09456 1.95638 67.77869 0 0 0
89 -12.00798 2.12188 67.64366 0 0 0
90 -12.98941 2.28739 67.76906 0 0 0
91 -13.89185 2.66863 67.75975 0 0 0
92 -14.67001 2.44961 68.40277 0 0 0
93 -15.70668 2.70968 68.40885 0 0 0
94 -16.62840 2.84992 68.10041 0 0 0
95 -17.32488 3.10583 68.72248 0 0 0
96 -18.17253 3.37834 68.90216 0 0 0
97 -19.28659 3.34464 68.91428 0 0 0
98 -20.06090 3.55412 68.42234 0 0 0
99 -20.80298 4.25767 68.32732 0 0 0
100 -21.65119 4.67242 68.48311 0 0 0
101 -22.58532 4.62234 68.80949 0 0 0
102 -23.44946 4.75878 69.36970 0 0 0
103 -24.27005 4.97945 69.83943 0 0 0
104 -25.14087 5.26786 70.22506 0 0 0
105 -25.99729 5.85261 70.10006 0 0 0
106 -26.68965 6.35789 70.68187 0 0 0
107 -27.49521 6.46962 71.26992 0 0 0
108 -28.41338 6.81111 71.35446 0 0 0
109 -29.24388 6.86275 71.80753 0 0 0
110 -30.15894 7.10294 71.93451 0 0 0
111 -31.11885 7.03993 72.01245 0 0 0
112 -32.02741 6.68833 72.08456 0 0 0
113 -32.91166 6.39418 72.36342 0 0 0
114 -33.69465 6.94873 72.74186 0 0 0
115 -34.68868 6.99370 72.72781 0 0 0
116 -35.60931 6.74871 73.16780 0 0 0
117 -36.21636 5.95298 73.39791 0 0 0
118 -37.08062 5.49323 73.35012 0 0 0
119 -37.96629 5.21418 73.65094 0 0 0
120 -38.52464 5.77804 74.21362 0 0 0
121 -39.45611 5.64928 74.37273 0 0 0
122 -40.35580 5.33613 74.82111 0 0 0
123 -41.34555 4.97205 74.93756 0 0 0
124 -42.27071 5.09237 74.76624 0 0 0
125 -43.11945 5.06404 75.21647 0 0 0
126 -44.12560 5.02895 75.12944 0 0 0
127 -45.12041 5.18379 75.15095 0 0 0
128 -45.58859 5.91221 75.56330 0 0 0
129 -46.56683 5.64229 75.86838 0 0 0
130 -47.54864 5.24389 75.73226 0 0 0
131 -48.40566 5.73838 75.71461 0 0 0
132 -48.85180 6.54279 76.05256 0 0 0
133 -49.80788 6.67567 76.16630 0 0 0
134 -50.32448 6.64654 75.32488 0 0 0
135 -51.10613 6.55927 74.78734 0 0 0
136 -51.80348 7.26380 74.91110 0 0 0
137 -51.95772 7.88635 75.66361 0 0 0
138 -52.64260 8.01964 76.39512 0 0 0
139 -53.38590 7.77070 77.03784 0 0 0
140 -54.18733 7.87654 77.58973 0 0 0
141 -54.56568 8.23789 78.43348 0 0 0
142 -54.69867 8.84582 79.14396 0 0 0
143 -55.06930 9.30389 79.81873 0 0 0
144 -55.59502 9.94871 80.31907 0 0 0
145 -56.18399 10.77953 80.42018 0 0 0
146 -56.93732 10.95313 79.74406 0 0 0
147 -57.85211 10.98782 79.32532 0 0 0
148 -58.34990 10.24917 79.74527 0 0 0
149 -59.10561 9.61604 79.83329 0 0 0
150 -59.28077 10.54215 80.24376 0 0 0
151 -60.22331 10.47215 79.77932 0 0 0
152 -0.17373 2.62489 64.58417 0 0 0
153 0.04609 3.56250 64.65911 0 0 0
154 0.11149 4.49781 64.15885 0 0 0
155 0.77927 5.07424 63.81497 0 0 0
156 1.36716 5.65373 63.18874 0 0 0
157 2.23300 6.00051 63.00830 0 0 0
158 2.77270 6.76036 63.39359 0 0 0
159 3.13234 7.58483 63.14936 0 0 0
160 3.53149 8.46063 62.94009 0 0 0
161 3.77731 9.41198 62.80347 0 0 0
162 4.22275 10.31132 62.59970 0 0 0
163 4.95070 10.99542 62.77607 0 0 0
164 5.21244 11.94385 62.44515 0 0 0
165 6.13393 12.30804 62.19288 0 0 0
166 6.87197 12.97344 62.07556 0 0 0
167 6.74062 13.87139 61.70653 0 0 0
168 6.87748 14.77626 61.30585 0 0 0
169 7.22062 15.70495 61.23892 0 0 0
170 8.00781 16.26774 60.94869 0 0 0
171 8.84058 16.81380 60.94335 0 0 0
172 9.69983 17.14957 61.24713 0 0 0
173 10.30614 17.69888 61.67136 0 0 0
174 11.14486 18.22228 61.86927 0 0 0
175 12.09403 18.58254 61.94004 0 0 0
176 12.56398 19.06426 62.68218 0 0 0
177 12.79589 20.04987 63.04726 0 0 0
178 12.61309 20.99360 62.79847 0 0 0
179 13.33621 21.77188 62.76765 0 0 0
180 14.14647 22.35443 62.66470 0 0 0
181 14.96847 22.82742 62.33681 0 0 0
182 15.15047 23.75684 62.18677 0 0 0
183 15.46379 24.60300 61.80624 0 0 0
184 15.90161 25.37648 61.46301 0 0 0
185 16.51648 26.07184 61.36429 0 0 0
186 16.89177 26.86566 61.04536 0 0 0
187 17.53639 27.53382 61.33479 0 0 0
188 18.10100 28.35261 61.26512 0 0 0
189 18.87696 29.00822 61.23716 0 0 0
190 19.28263 29.88897 61.32615 0 0 0
191 19.82160 30.62075 61.54981 0 0 0
192 20.57588 31.11643 61.27251 0 0 0
193 21.11140 31.77830 60.77006 0 0 0
194 21.55925 32.36637 60.17731 0 0 0
195 21.91397 33.31189 60.12404 0 0 0
196 22.25286 34.11611 59.73226 0 0 0
197 22.34365 35.06390 59.57852 0 0 0
198 23.22161 35.50431 59.58929 0 0 0
199 23.90540 36.04832 60.15953 0 0 0
200 24.62269 36.58737 60.56059 0 0 0
201 24.90483 37.56283 60.66081 0 0 0
202 25.08833 38.52880 60.79261 0 0 0
203 25.82294 38.50823 60.12782 0 0 0
204 26.66218 38.88890 60.41179 0 0 0
205 27.62662 39.11265 60.41711 0 0 0