ITEM: TIMESTEP
0
ITEM: NUMBER OF ATOMS
100
ITEM: BOX BOUNDS pp pp pp
-1.0000000000000000e+03 1.0000000000000000e+03
-1.0000000000000000e+03 1.0000000000000000e+03
-1.0000000000000000e+03 1.0000000000000000e+03
ITEM: ATOMS id x y z ix iy iz
1 0.00000 0.00000 0.00000 0 0 0
2 0.00000 1.00000 0.00000 0 0 0
3 0.00000 1.86603 0.50000 0 0 0
4 0.00000 2.73205 0.00000 0 0 0
5 0.00000 3.59808 0.50000 0 0 0
6 0.00000 4.46410 0.00000 0 0 0
7 0.00000 5.33013 0.50000 0 0 0
8 0.00000 6.19615 0.00000 0 0 0
9 0.00000 7.06218 0.50000 0 0 0
10 0.00000 7.92820 0.00000 0 0 0
11 0.00000 8.79423 0.50000 0 0 0
12 0.00000 9.66025 0.00000 0 0 0
13 0.00000 10.52628 0.50000 0 0 0
14 0.00000 11.39230 0.00000 0 0 0
15 0.00000 12.25833 0.50000 0 0 0
16 0.00000 13.12436 0.00000 0 0 0
17 0.00000 13.99038 0.50000 0 0 0
18 0.00000 14.85641 0.00000 0 0 0
19 0.00000 15.72243 0.50000 0 0 0
20 0.00000 16.58846 0.00000 0 0 0
21 0.00000 17.45448 0.50000 0 0 0
22 0.00000 18.32051 0.00000 0 0 0
23 0.00000 19.18653 0.50000 0 0 0
24 0.00000 20.05256 0.00000 0 0 0
25 0.00000 20.91858 0.50000 0 0 0
26 0.00000 21.78461 0.00000 0 0 0
27 0.00000 22.65064 0.50000 0 0 0
28 0.00000 23.51666 0.00000 0 0 0
29 0.00000 24.38269 0.50000 0 0 0
30 0.00000 25.24871 0.00000 0 0 0
31 0.00000 26.11474 0.50000 0 0 0
32 0.00000 26.98076 0.00000 0 0 0
33 0.00000 27.84679 0.50000 0 0 0
34 0.00000 28.71281 0.00000 0 0 0
35 0.00000 29.57884 0.50000 0 0 0
36 0.00000 30.44486 0.00000 0 0 0
37 0.00000 31.31089 0.50000 0 0 0
38 0.00000 32.17691 0.00000 0 0 0
39 0.00000 33.04294 0.50000 0 0 0
40 0.00000 33.90897 0.00000 0 0 0
41 0.00000 34.77499 0.50000 0 0 0
42 0.00000 35.64102 0.00000 0 0 0
43 0.00000 36.50704 0.50000 0 0 0
44 0.00000 37.37307 0.00000 0 0 0
45 0.00000 38.23909 0.50000 0 0 0
46 0.00000 39.10512 0.00000 0 0 0
47 0.00000 39.97114 0.50000 0 0 0
48 0.00000 40.83717 0.00000 0 0 0
49 0.00000 41.70319 0.50000 0 0 0
50 0.00000 42.56922 0.00000 0 0 0
51 0.00000 43.43524 0.50000 0 0 0
52 0.00000 44.30127 0.00000 0 0 0
53 0.00000 45.16730 0.50000 0 0 0
54 0.00000 46.03332 0.00000 0 0 0
55 0.00000 46.89935 0.50000 0 0 0
56 0.00000 47.76537 0.00000 0 0 0
57 0.00000 48.63140 0.50000 0 0 0
58 0.00000 49.49742 0.00000 0 0 0
59 0.00000 50.36345 0.50000 0 0 0
60 0.00000 51.22947 0.00000 0 0 0
61 0.00000 52.09550 0.50000 0 0 0
62 0.00000 52.96152 0.00000 0 0 0
63 0.00000 53.82755 0.50000 0 0 0
64 0.00000 54.69358 0.00000 0 0 0
65 0.00000 55.55960 0.50000 0 0 0
66 0.00000 56.42563 0.00000 0 0 0
67 0.00000 57.29165 0.50000 0 0 0
68 0.00000 58.15768 0.00000 0 0 0
69 0.00000 59.02370 0.50000 0 0 0
70 0.00000 59.88973 0.00000 0 0 0
71 0.00000 60.75575 0.50000 0 0 0
72 0.00000 61.62178 0.00000 0 0 0
73 0.00000 62.48780 0.50000 0 0 0
74 0.00000 63.35383 0.00000 0 0 0
75 0.00000 64.21985 0.50000 0 0 0
76 0.00000 65.08588 0.00000 0 0 0
77 0.00000 65.95191 0.50000 0 0 0
78 0.00000 66.81793 0.00000 0 0 0
79 0.00000 67.68396 0.50000 0 0 0
80 0.00000 68.54998 0.00000 0 0 0
81 0.00000 69.41601 0.50000 0 0 0
82 0.00000 70.28203 0.00000 0 0 0
83 0.00000 71.14806 0.50000 0 0 0
84 0.00000 72.01408 0.00000 0 0 0
85 0.00000 72.88011 0.50000 0 0 0
86 0.00000 73.74613 0.00000 0 0 0
87 0.00000 74.61216 0.50000 0 0 0
88 0.00000 75.47818 0.00000 0 0 0
89 0.00000 76.34421 0.50000 0 0 0
90 0.00000 77.21024 0.00000 0 0 0
91 0.00000 78.07626 0.50000 0 0 0
92 0.00000 78.94229 0.00000 0 0 0
93 0.00000 79.80831 0.50000 0 0 0
94 0.00000 80.67434 0.00000 0 0 0
95 0.00000 81.54036 0.50000 0 0 0
96 0.00000 82.40639 0.00000 0 0 0
97 0.00000 83.27241 0.50000 0 0 0
98 0.00000 84.13844 0.00000 0 0 0
99 0.00000 85.00446 0.50000 0 0 0
100 0.00000 85.87049 0.00000 0 0 0
ITEM: TIMESTEP
1000
ITEM: NUMBER OF ATOMS
100
ITEM: BOX BOUNDS pp pp pp
-1.0000000000000000e+03 1.0000000000000000e+03
-1.0000000000000000e+03 1.0000000000000000e+03
-1.0000000000000000e+03 1.0000000000000000e+03
ITEM: ATOMS id x y z ix iy iz
1 -0.55883 3.18017 -1.49115 0 0 0
2 -1.13227 3.90857 -1.23876 0 0 0
3 -1.16639 4.69544 -0.68360 0 0 0
4 -0.72147 5.50471 -0.49117 0 0 0
5 -1.21286 6.21193 -0.02233 0 0 0
6 -1.28572 7.19800 0.16059 0 0 0
7 -0.66062 7.92452 0.08499 0 0 0
8 -0.27844 8.76523 0.52123 0 0 0
9 0.42548 9.44127 0.41180 0 0 0
10 0.15316 10.36871 0.74913 0 0 0
11 0.77928 11.08269 0.87457 0 0 0
12 0.23414 11.88402 1.11220 0 0 0
13 -0.26666 11.97200 0.27033 0 0 0
14 -0.46471 12.56208 -0.53913 0 0 0
15 -0.41936 13.53375 -0.43103 0 0 0
16 -0.59928 13.84962 0.44936 0 0 0
17 -0.94789 14.71799 0.42132 0 0 0
18 -0.95447 15.80012 0.47803 0 0 0
19 -0.54817 16.71214 0.54941 0 0 0
20 -0.82343 17.59436 0.69352 0 0 0
21 -1.78927 17.65553 0.98245 0 0 0
22 -1.64103 18.59056 1.30097 0 0 0
23 -1.98956 19.39789 0.93122 0 0 0
24 -1.89431 20.30869 0.74714 0 0 0
25 -1.36364 21.09824 0.47319 0 0 0
26 -1.08132 22.00792 0.32680 0 0 0
27 -0.84602 22.94391 0.55338 0 0 0
28 -0.82167 23.60325 1.32683 0 0 0
29 -0.77994 24.50365 1.42155 0 0 0
30 -0.76680 25.41693 1.65148 0 0 0
31 -0.78172 26.35388 1.89285 0 0 0
32 0.01708 26.88444 1.47691 0 0 0
33 0.17118 27.74046 1.04621 0 0 0
34 -0.03132 28.73238 0.97093 0 0 0
35 0.09377 29.83789 0.65228 0 0 0
36 0.08802 30.82186 0.92290 0 0 0
37 0.21074 31.83259 0.67532 0 0 0
38 1.05237 32.24996 1.03437 0 0 0
39 1.01651 33.26798 1.31709 0 0 0
40 1.35921 34.20223 1.45760 0 0 0
41 0.98983 34.93924 0.92130 0 0 0
42 1.19799 35.87758 0.70257 0 0 0
43 1.44854 36.68835 1.11900 0 0 0
44 1.71965 37.62253 1.16021 0 0 0
45 1.37072 38.52454 1.35374 0 0 0
46 1.39200 39.43242 1.60309 0 0 0
47 1.18667 40.29805 1.25227 0 0 0
48 1.56942 41.20860 1.08723 0 0 0
49 1.43449 42.04699 0.55140 0 0 0
50 1.41256 42.94630 0.88059 0 0 0
51 1.23285 43.60126 0.22854 0 0 0
52 1.26116 44.62013 0.36215 0 0 0
53 1.37658 45.59006 0.42085 0 0 0
54 1.72491 46.47367 0.42983 0 0 0
55 1.87769 47.42572 0.41631 0 0 0
56 2.06619 48.37487 0.43859 0 0 0
57 2.38679 49.18615 0.94022 0 0 0
58 1.88295 49.92558 1.15566 0 0 0
59 2.22722 50.83373 1.18552 0 0 0
60 1.43917 51.36955 0.85501 0 0 0
61 1.71759 52.27411 1.08839 0 0 0
62 0.73705 52.39762 0.91495 0 0 0
63 0.52141 53.35175 0.72518 0 0 0
64 0.35493 54.29394 0.40956 0 0 0
65 0.70934 55.16037 0.14799 0 0 0
66 0.42492 56.11808 -0.04050 0 0 0
67 0.02574 57.02163 -0.31109 0 0 0
68 -0.09058 57.96167 -0.84432 0 0 0
69 0.43403 58.78394 -0.63428 0 0 0
70 0.99531 59.46454 -1.05306 0 0 0
71 0.58126 60.35725 -1.02297 0 0 0
72 -0.09092 61.03919 -1.42272 0 0 0
73 0.41147 61.89658 -1.46161 0 0 0
74 0.26569 62.88987 -1.01877 0 0 0
75 0.10593 63.84715 -1.36796 0 0 0
76 0.06910 64.85739 -1.68123 0 0 0
77 -0.46161 65.62663 -1.91396 0 0 0
78 -0.01910 66.49470 -2.11790 0 0 0
79 -0.67233 66.80275 -1.28251 0 0 0
80 -0.25815 67.58027 -1.14269 0 0 0
81 -0.52934 68.44256 -0.87605 0 0 0
82 -0.07895 69.27548 -0.38743 0 0 0
83 -0.85510 69.89085 -0.44879 0 0 0
84 -0.25114 70.64956 -0.11070 0 0 0
85 -0.72438 71.41212 0.19766 0 0 0
86 -1.29620 72.15812 -0.01558 0 0 0
87 -1.88161 72.89922 0.30099 0 0 0
88 -2.37912 73.76143 0.26685 0 0 0
89 -2.41886 74.77636 0.09686 0 0 0
90 -2.14540 75.44557 -0.43992 0 0 0
91 -2.26567 76.44400 -0.49860 0 0 0
92 -1.36105 76.70095 -0.49062 0 0 0
93 -0.60043 77.23199 -0.62838 0 0 0
94 -0.49253 78.17089 -0.87466 0 0 0
95 -0.24520 78.74289 -0.16110 0 0 0
96 0.58119 79.13563 0.10358 0 0 0
97 0.66757 79.38104 -0.79990 0 0 0
98 0.88056 79.65185 -1.64341 0 0 0
99 -0.07695 79.62138 -1.81451 0 0 0
100 -0.72961 79.90484 -2.40905 0 0 0
ITEM: TIMESTEP
2000
ITEM: NUMBER OF ATOMS
100
ITEM: BOX BOUNDS pp pp pp
-1.0000000000000000e+03 1.0000000000000000e+03
-1.0000000000000000e+03 1.0000000000000000e+03
-1.0000000000000000e+03 1.0000000000000000e+03
ITEM: ATOMS id x y z ix iy iz
1 1.52004 5.72957 -0.78346 0 0 0
2 1.19662 5.76562 0.20182 0 0 0
3 1.75142 6.21486 0.87106 0 0 0
4 1.28521 7.07213 0.72449 0 0 0
5 0.64754 7.59268 0.18099 0 0 0
6 -0.22544 7.63279 -0.20870 0 0 0
7 -0.66498 7.85463 0.61280 0 0 0
8 -0.58298 8.69675 0.97471 0 0 0
9 -0.83990 9.62213 1.00458 0 0 0
10 -0.30251 10.43083 0.83725 0 0 0
11 -0.88642 11.09033 0.37839 0 0 0
12 -1.19462 11.96218 0.16363 0 0 0
13 -1.11906 12.93999 0.11029 0 0 0
14 -1.30020 13.89004 -0.02366 0 0 0
15 -1.21530 14.79501 -0.40832 0 0 0
16 -0.99364 15.64274 -0.69496 0 0 0
17 -1.34998 16.31215 -0.12200 0 0 0
18 -0.98923 17.20737 -0.36988 0 0 0
19 -1.18217 17.99989 -1.00803 0 0 0
20 -1.19294 18.96177 -1.30190 0 0 0
21 -0.87172 19.82019 -0.89673 0 0 0
22 -0.93422 20.71128 -0.53616 0 0 0
23 -0.80598 21.63285 -0.72838 0 0 0
24 -1.24894 22.14798 -0.04949 0 0 0
25 -0.79407 23.10515 -0.03765 0 0 0
26 -0.56817 24.12337 0.21127 0 0 0
27 -1.28788 24.59860 -0.14540 0 0 0
28 -1.50441 25.53307 -0.37181 0 0 0
29 -1.78344 26.43918 -0.48379 0 0 0
30 -1.59294 27.33663 -0.22103 0 0 0
31 -1.44970 28.32905 -0.15803 0 0 0
32 -0.70444 28.76598 0.29172 0 0 0
33 -0.65348 29.55498 0.83695 0 0 0
34 -0.11037 30.38609 1.00945 0 0 0
35 0.31530 31.16684 1.32922 0 0 0
36 0.69958 31.86171 2.06172 0 0 0
37 0.94457 32.67817 1.62838 0 0 0
38 1.25012 33.59858 1.39012 0 0 0
39 0.75069 34.17008 0.69985 0 0 0
40 1.14844 34.91501 0.09354 0 0 0
41 1.23739 35.76361 -0.37368 0 0 0
42 1.10524 36.68815 -0.02524 0 0 0
43 1.28192 37.38041 -0.64986 0 0 0
44 1.67880 38.33198 -0.80855 0 0 0
45 2.09499 39.24731 -0.78456 0 0 0
46 2.44266 40.09986 -0.81267 0 0 0
47 2.56777 41.12024 -1.05544 0 0 0
48 3.21095 41.74892 -1.43430 0 0 0
49 2.95172 42.59915 -1.12364 0 0 0
50 2.26139 43.50691 -1.15628 0 0 0
51 2.59687 44.45967 -1.03223 0 0 0
52 2.44524 45.37489 -0.73201 0 0 0
53 2.23537 46.23259 -1.23297 0 0 0
54 2.03479 46.93128 -1.86408 0 0 0
55 1.96167 47.85897 -1.65651 0 0 0
56 2.38072 48.73729 -1.65138 0 0 0
57 2.58383 49.61941 -2.13559 0 0 0
58 2.10677 50.39730 -2.05641 0 0 0
59 2.08250 51.35163 -2.34896 0 0 0
60 2.19785 52.31145 -1.96786 0 0 0
61 2.23132 52.98186 -1.16962 0 0 0
62 1.63123 53.67538 -0.79264 0 0 0
63 1.31719 54.58685 -0.55511 0 0 0
64 1.29401 55.57220 -0.28000 0 0 0
65 0.84400 56.22087 -0.78062 0 0 0
66 0.10997 56.86348 -0.70602 0 0 0
67 -0.73227 57.20116 -0.35203 0 0 0
68 -0.88858 58.02733 0.18550 0 0 0
69 -0.72923 58.98667 0.27840 0 0 0
70 -0.36345 59.85810 -0.09802 0 0 0
71 -0.16515 60.63894 -0.68804 0 0 0
72 -0.00977 61.60270 -0.41226 0 0 0
73 -0.29732 62.53404 -0.34491 0 0 0
74 -0.00223 63.57240 -0.59242 0 0 0
75 0.16829 64.49668 -0.99590 0 0 0
76 0.20136 65.16535 -0.24668 0 0 0
77 0.88196 65.84306 -0.40994 0 0 0
78 0.67622 66.68608 0.05838 0 0 0
79 0.51829 67.17694 0.91873 0 0 0
80 0.06609 67.97232 1.22823 0 0 0
81 0.11336 68.91216 0.73838 0 0 0
82 -0.18585 69.67368 1.37632 0 0 0
83 -0.70079 70.33819 0.75590 0 0 0
84 -1.30077 71.12775 0.94092 0 0 0
85 -1.61819 71.49274 1.87109 0 0 0
86 -0.95812 72.03053 2.42263 0 0 0
87 -1.04074 72.93046 2.02352 0 0 0
88 -0.98106 73.90069 1.80204 0 0 0
89 -0.88689 74.80292 1.36132 0 0 0
90 -0.59704 75.69033 1.24455 0 0 0
91 -0.07772 75.95674 2.07351 0 0 0
92 0.73306 76.61126 1.68148 0 0 0
93 1.31807 77.04876 0.99706 0 0 0
94 1.04942 77.82045 0.56928 0 0 0
95 0.37733 77.73157 -0.16299 0 0 0
96 1.06100 77.73601 -0.75735 0 0 0
97 0.73932 78.46875 -1.41338 0 0 0
98 -0.05627 77.98434 -1.34381 0 0 0
99 -0.94924 77.71385 -1.13441 0 0 0
100 -1.32838 78.06320 -0.27702 0 0 0
ITEM: TIMESTEP
3000
ITEM: NUMBER OF ATOMS
100
ITEM: BOX BOUNDS pp pp pp
-1.0000000000000000e+03 1.0000000000000000e+03
-1.0000000000000000e+03 1.0000000000000000e+03
-1.0000000000000000e+03 1.0000000000000000e+03
ITEM: ATOMS id x y z ix iy iz
1 2.70471 6.07845 2.45971 0 0 0
2 2.51478 7.03068 2.46327 0 0 0
3 1.94846 7.85426 2.22852 0 0 0
4 1.32673 8.48272 1.70544 0 0 0
5 0.63964 9.32544 1.80149 0 0 0
6 -0.00838 9.03926 1.18009 0 0 0
7 -0.38185 9.76515 1.68860 0 0 0
8 0.01523 10.26986 0.90492 0 0 0
9 -0.01220 10.92314 0.14311 0 0 0
10 -0.02446 11.75872 -0.37204 0 0 0
11 -0.35250 12.60844 -0.84000 0 0 0
12 -0.54331 13.23103 -0.08079 0 0 0
13 -0.65927 14.04473 -0.68094 0 0 0
14 -0.60218 14.65831 -1.46979 0 0 0
15 -0.39590 15.56309 -2.07258 0 0 0
16 -0.43026 16.46891 -1.74839 0 0 0
17 -0.41234 17.33984 -1.28530 0 0 0
18 -0.37721 18.33781 -1.61774 0 0 0
19 0.12090 19.05115 -1.95248 0 0 0
20 0.03140 19.40974 -1.01164 0 0 0
21 0.20771 19.58280 -0.03814 0 0 0
22 0.29938 20.61609 -0.17051 0 0 0
23 0.31506 21.61598 -0.35549 0 0 0
24 0.39700 22.71071 -0.45311 0 0 0
25 0.77491 23.61243 -0.24752 0 0 0
26 0.74384 24.46013 -0.75137 0 0 0
27 0.29929 25.34832 -0.23965 0 0 0
28 -0.10613 26.12816 0.19012 0 0 0
29 -0.14455 27.06060 0.43331 0 0 0
30 -0.04705 28.14558 0.40939 0 0 0
31 -0.32148 29.05398 0.29175 0 0 0
32 -0.58114 29.95059 0.42313 0 0 0
33 -1.10939 30.81735 0.38111 0 0 0
34 -1.06928 31.81100 0.56443 0 0 0
35 -1.47399 32.69534 0.46681 0 0 0
36 -2.20824 33.49018 0.32311 0 0 0
37 -2.05835 34.45903 0.34129 0 0 0
38 -2.58364 35.27338 0.06897 0 0 0
39 -1.77656 35.99375 -0.14558 0 0 0
40 -1.14203 36.79578 0.03362 0 0 0
41 -0.86583 37.59373 -0.63906 0 0 0
42 -0.40697 38.38486 -0.25552 0 0 0
43 0.12371 39.03232 -0.79225 0 0 0
44 0.25907 39.91813 -0.45253 0 0 0
45 0.90160 40.57874 -0.74877 0 0 0
46 0.85767 41.52853 -1.00290 0 0 0
47 0.44740 42.25495 -0.61186 0 0 0
48 1.23583 42.87519 -0.47707 0 0 0
49 2.17254 43.09459 -0.55372 0 0 0
50 2.61592 43.62776 -1.38082 0 0 0
51 2.69170 44.60474 -1.72493 0 0 0
52 3.34544 45.05710 -2.28020 0 0 0
53 3.45334 45.99957 -2.50616 0 0 0
54 3.15630 46.56568 -1.70673 0 0 0
55 2.61704 47.14245 -1.05878 0 0 0
56 2.97324 47.86382 -0.50926 0 0 0
57 2.21514 48.53824 0.01570 0 0 0
58 1.93270 48.65402 -0.97937 0 0 0
59 1.76724 49.59932 -0.93693 0 0 0
60 1.50158 50.47295 -1.01462 0 0 0
61 1.35632 51.39502 -0.47763 0 0 0
62 1.42926 52.36189 -0.28286 0 0 0
63 0.64262 52.80403 -0.11316 0 0 0
64 0.42330 53.67922 -0.37358 0 0 0
65 0.59258 54.64524 -0.68452 0 0 0
66 0.59778 54.92922 0.27106 0 0 0
67 0.88281 55.57788 -0.37973 0 0 0
68 0.90261 56.59172 -0.22546 0 0 0
69 0.89600 57.52332 0.12830 0 0 0
70 0.81440 58.24463 0.84606 0 0 0
71 0.73734 59.11368 0.39577 0 0 0
72 0.33441 59.95883 0.10633 0 0 0
73 0.23997 60.93663 0.35005 0 0 0
74 0.13771 61.84348 0.68295 0 0 0
75 0.27152 62.76265 0.32871 0 0 0
76 1.05078 63.35162 0.59042 0 0 0
77 1.20117 64.12436 1.25662 0 0 0
78 0.57385 64.71889 0.90799 0 0 0
79 0.64834 65.70273 0.79571 0 0 0
80 1.11281 66.49909 0.50640 0 0 0
81 0.58452 67.16211 0.84712 0 0 0
82 -0.07252 67.78350 0.48659 0 0 0
83 -0.87043 68.40912 0.36079 0 0 0
84 -1.40530 69.18553 0.60640 0 0 0
85 -1.80760 70.12715 0.46477 0 0 0
86 -1.04093 70.72268 0.68229 0 0 0
87 -0.53616 71.53420 1.08786 0 0 0
88 0.33749 71.94531 1.29343 0 0 0
89 0.20051 72.72128 0.68355 0 0 0
90 0.46384 73.64022 0.82128 0 0 0
91 0.91907 74.48774 1.22006 0 0 0
92 0.84284 75.49216 0.93074 0 0 0
93 0.97237 76.26296 0.38830 0 0 0
94 0.95757 77.05971 0.88355 0 0 0
95 0.77743 77.50096 -0.02393 0 0 0
96 0.32226 76.76344 -0.41408 0 0 0
97 -0.17302 77.07281 0.42799 0 0 0
98 -0.73903 77.51042 0.98891 0 0 0
99 -0.51209 78.54177 1.04747 0 0 0
100 -0.82250 79.37733 0.76252 0 0 0
ITEM: TIMESTEP
4000
ITEM: NUMBER OF ATOMS
100
ITEM: BOX BOUNDS pp pp pp
-1.0000000000000000e+03 1.0000000000000000e+03
-1.0000000000000000e+03 1.0000000000000000e+03
-1.0000000000000000e+03 1.0000000000000000e+03
ITEM: ATOMS id x y z ix iy iz
1 -1.69760 8.65648 0.45519 0 0 0
2 -1.70303 9.40476 -0.16322 0 0 0
3 -0.79358 9.63176 -0.02789 0 0 0
4 0.07579 10.02580 -0.31583 0 0 0
5 1.08439 9.90478 -0.24140 0 0 0
6 1.22552 10.76139 -0.60012 0 0 0
7 0.33433 11.10762 -0.32192 0 0 0
8 0.53201 12.13122 -0.23567 0 0 0
9 1.33294 12.71427 -0.28795 0 0 0
10 2.03373 12.96396 -0.98567 0 0 0
11 2.50829 13.73544 -1.34187 0 0 0
12 2.43597 14.66278 -1.50956 0 0 0
13 2.12167 15.33724 -0.84435 0 0 0
14 1.31382 16.01685 -0.79435 0 0 0
15 1.62714 16.84388 -0.41059 0 0 0
16 1.77785 17.77258 -0.22742 0 0 0
17 1.07660 18.42754 -0.15320 0 0 0
18 0.66017 19.29816 0.05100 0 0 0
19 1.35275 20.07972 0.18491 0 0 0
20 1.60305 20.87951 -0.23210 0 0 0
21 1.06462 21.60016 -0.58004 0 0 0
22 0.67038 22.48949 -0.89685 0 0 0
23 0.27148 23.29239 -0.47161 0 0 0
24 0.92005 23.86285 -0.85304 0 0 0
25 0.68797 24.78890 -1.17009 0 0 0
26 1.20862 25.64956 -0.92094 0 0 0
27 1.35532 26.26184 -1.61091 0 0 0
28 1.19920 27.10885 -1.10853 0 0 0
29 0.20379 27.19874 -1.18453 0 0 0
30 -0.08440 27.94207 -1.78055 0 0 0
31 -0.71505 28.68434 -1.78885 0 0 0
32 -1.17350 29.47438 -2.15883 0 0 0
33 -1.55536 30.22901 -1.68072 0 0 0
34 -1.20967 31.10418 -1.71998 0 0 0
35 -0.59427 31.92380 -1.95797 0 0 0
36 -0.59847 32.78757 -1.51419 0 0 0
37 -1.25468 33.60303 -1.37253 0 0 0
38 -0.85341 34.44847 -1.26698 0 0 0
39 -0.74676 35.44735 -1.45949 0 0 0
40 -0.56726 36.34390 -1.88797 0 0 0
41 -0.16335 37.30682 -1.67259 0 0 0
42 0.52331 37.62091 -2.28316 0 0 0
43 1.08541 37.21083 -3.04149 0 0 0
44 1.73021 37.93200 -3.48172 0 0 0
45 1.70411 38.86173 -3.42312 0 0 0
46 1.12557 39.69105 -3.19304 0 0 0
47 1.17365 40.59610 -2.87979 0 0 0
48 0.80015 41.44912 -2.59528 0 0 0
49 1.03835 42.26044 -2.13730 0 0 0
50 1.12011 43.18266 -1.83706 0 0 0
51 1.85350 43.67618 -1.27854 0 0 0
52 1.84009 44.64649 -1.12180 0 0 0
53 1.84055 45.53942 -1.64811 0 0 0
54 2.16964 46.46401 -1.50632 0 0 0
55 1.31916 46.82720 -1.54528 0 0 0
56 0.98403 47.76388 -1.40819 0 0 0
57 0.54525 48.71669 -1.51405 0 0 0
58 0.59329 49.53881 -0.97106 0 0 0
59 0.96238 50.38104 -0.83225 0 0 0
60 0.93547 51.31034 -0.81531 0 0 0
61 0.76038 52.26233 -0.95099 0 0 0
62 0.08377 53.09495 -0.98160 0 0 0
63 0.22441 54.07874 -0.89555 0 0 0
64 0.24300 54.95012 -0.41928 0 0 0
65 0.04979 55.60709 0.30248 0 0 0
66 0.17129 56.57746 0.50693 0 0 0
67 0.46266 57.43277 0.78782 0 0 0
68 0.77101 58.32474 0.31907 0 0 0
69 0.53945 59.27745 0.13653 0 0 0
70 -0.10889 59.80658 -0.50371 0 0 0
71 -0.60999 60.41556 -1.11544 0 0 0
72 -0.55337 60.95682 -1.93143 0 0 0
73 -0.53442 61.83830 -2.32909 0 0 0
74 -0.69510 62.69970 -2.01610 0 0 0
75 0.21520 62.72519 -1.59789 0 0 0
76 0.40749 63.35644 -0.82795 0 0 0
77 -0.16900 64.08659 -0.30822 0 0 0
78 0.13458 65.03998 -0.10088 0 0 0
79 0.39561 65.79661 0.57648 0 0 0
80 0.68850 66.58008 0.99215 0 0 0
81 0.44679 67.47401 0.68530 0 0 0
82 0.52666 68.43973 0.39053 0 0 0
83 0.39807 69.16810 1.11710 0 0 0
84 -0.50515 69.13805 0.84595 0 0 0
85 -0.57323 70.08567 1.16473 0 0 0
86 -0.96730 70.94634 0.99181 0 0 0
87 -1.59851 71.64647 0.78367 0 0 0
88 -1.06976 72.39782 1.21323 0 0 0
89 -0.26912 72.09412 0.83125 0 0 0
90 0.19844 72.87668 1.42254 0 0 0
91 0.60186 73.67486 1.73088 0 0 0
92 0.29765 74.51562 2.10941 0 0 0
93 -0.47856 74.95833 1.61698 0 0 0
94 -0.16815 74.48143 0.83143 0 0 0
95 -0.13742 73.49709 0.61803 0 0 0
96 0.24463 73.89088 -0.30453 0 0 0
97 0.03522 74.75911 -0.13062 0 0 0
98 -0.16226 75.64520 0.20660 0 0 0
99 -0.53358 76.31984 0.74077 0 0 0
100 -0.96597 76.51182 -0.10735 0 0 0
ITEM: TIMESTEP
5000
ITEM: NUMBER OF ATOMS
100
ITEM: BOX BOUNDS pp pp pp
-1.0000000000000000e+03 1.0000000000000000e+03
-1.0000000000000000e+03 1.0000000000000000e+03
-1.0000000000000000e+03 1.0000000000000000e+03
ITEM: ATOMS id x y z ix iy iz
1 -1.46506 11.42958 -2.84757 0 0 0
2 -0.79569 12.00251 -2.45693 0 0 0
3 -0.60147 11.50394 -1.63784 0 0 0
4 -1.11546 11.12149 -0.86943 0 0 0
5 -1.01566 11.94711 -0.47048 0 0 0
6 -1.72076 12.60946 -0.61057 0 0 0
7 -0.96264 13.14200 -0.45526 0 0 0
8 -1.18769 13.97595 -1.05940 0 0 0
9 -0.73561 14.77666 -1.27755 0 0 0
10 -0.08506 15.38580 -1.03694 0 0 0
11 0.84416 15.67551 -1.23628 0 0 0
12 1.55436 16.28262 -0.99137 0 0 0
13 1.00996 16.83187 -0.45926 0 0 0
14 0.48301 17.35584 0.23560 0 0 0
15 0.10657 18.21282 -0.00025 0 0 0
16 0.03790 19.07166 0.38240 0 0 0
17 -0.08795 20.01051 0.16393 0 0 0
18 -0.24489 20.83276 -0.24502 0 0 0
19 0.28003 21.35330 0.38621 0 0 0
20 1.15780 21.45922 0.76597 0 0 0
21 0.77782 22.30290 1.05736 0 0 0
22 0.38965 23.32438 1.17435 0 0 0
23 0.48367 24.27442 1.32744 0 0 0
24 0.15778 24.99948 0.80600 0 0 0
25 -0.25777 25.67837 0.32125 0 0 0
26 -0.61114 26.62679 0.32503 0 0 0
27 -0.79432 27.52167 -0.05940 0 0 0
28 -1.53933 28.12378 -0.33029 0 0 0
29 -1.78444 28.47176 -1.29140 0 0 0
30 -0.81069 28.79359 -1.41947 0 0 0
31 -0.71199 29.47111 -2.13724 0 0 0
32 -0.79735 30.30396 -2.56387 0 0 0
33 -0.99792 30.56972 -3.42978 0 0 0
34 -1.10865 31.44750 -3.83377 0 0 0
35 -0.67035 31.74857 -4.57450 0 0 0
36 -0.41830 32.70758 -4.58152 0 0 0
37 -0.29300 33.62282 -4.26544 0 0 0
38 -0.57358 34.30541 -4.94373 0 0 0
39 -0.61169 35.30962 -5.07855 0 0 0
40 -1.05954 36.07067 -5.57993 0 0 0
41 -1.29847 36.91929 -5.94853 0 0 0
42 -2.16863 37.33998 -5.60578 0 0 0
43 -1.96668 37.51392 -4.62262 0 0 0
44 -1.28425 38.07912 -4.23590 0 0 0
45 -0.64677 38.84490 -4.04069 0 0 0
46 -0.26300 39.32411 -3.20699 0 0 0
47 0.07474 40.29277 -3.09937 0 0 0
48 -0.09541 41.25191 -3.05151 0 0 0
49 -0.19073 42.18347 -2.79273 0 0 0
50 -0.28931 43.11550 -2.54984 0 0 0
51 -0.40260 44.12835 -2.44957 0 0 0
52 -0.89554 44.97031 -2.20665 0 0 0
53 -1.01289 45.75914 -1.56016 0 0 0
54 -0.21919 46.09718 -1.01476 0 0 0
55 -0.27939 47.02418 -0.77262 0 0 0
56 0.10424 47.49654 0.01192 0 0 0
57 0.42611 48.40871 -0.18317 0 0 0
58 0.58185 49.21869 -0.69845 0 0 0
59 0.45556 50.13222 -0.36956 0 0 0
60 -0.02511 50.91282 -0.63619 0 0 0
61 -0.51334 51.77214 -0.47533 0 0 0
62 -0.36992 52.73401 -0.38759 0 0 0
63 0.07734 53.31623 0.29401 0 0 0
64 -0.31098 54.05992 -0.30155 0 0 0
65 -0.84486 54.85980 -0.11042 0 0 0
66 -0.94845 55.35362 -1.06159 0 0 0
67 -0.36037 56.14238 -1.38055 0 0 0
68 -0.73241 57.01784 -1.05433 0 0 0
69 -1.23054 57.69099 -0.52746 0 0 0
70 -1.08476 58.49319 -1.04325 0 0 0
71 -0.93316 59.19401 -1.71087 0 0 0
72 -0.59272 59.81813 -2.43952 0 0 0
73 -0.26811 60.51217 -3.15163 0 0 0
74 -0.43886 61.39806 -3.33824 0 0 0
75 -0.90149 62.02210 -3.85423 0 0 0
76 -0.66877 62.96704 -3.51540 0 0 0
77 -0.37294 63.86730 -3.29396 0 0 0
78 0.38911 64.23388 -2.83488 0 0 0
79 0.72402 64.70470 -2.03243 0 0 0
80 0.86902 65.63120 -2.11910 0 0 0
81 0.61851 66.50744 -1.84915 0 0 0
82 0.23449 66.25351 -1.04380 0 0 0
83 -0.24544 66.85538 -0.57604 0 0 0
84 -0.81864 67.69040 -0.59553 0 0 0
85 -0.96947 68.56680 -0.12984 0 0 0
86 -1.05059 69.47573 0.33050 0 0 0
87 -1.29979 70.25935 0.81570 0 0 0
88 -1.73899 71.01270 1.33175 0 0 0
89 -2.68144 70.71114 1.49829 0 0 0
90 -2.81169 71.61229 1.20862 0 0 0
91 -3.06374 72.49355 1.46159 0 0 0
92 -2.16417 72.48703 1.12300 0 0 0
93 -1.57898 73.22225 0.89212 0 0 0
94 -1.22013 74.09115 0.68818 0 0 0
95 -0.55161 74.57467 0.21296 0 0 0
96 -0.25432 75.52200 0.06355 0 0 0
97 0.31402 76.11003 0.63621 0 0 0
98 0.89822 76.85648 0.93611 0 0 0
99 1.04214 76.34074 1.72039 0 0 0
100 1.32363 75.50351 2.06799 0 0 0
ITEM: TIMESTEP
6000
ITEM: NUMBER OF ATOMS
100
ITEM: BOX BOUNDS pp pp pp
-1.0000000000000000e+03 1.0000000000000000e+03
-1.0000000000000000e+03 1.0000000000000000e+03
-1.0000000000000000e+03 1.0000000000000000e+03
ITEM: ATOMS id x y z ix iy iz
1 -1.08356 15.26987 -0.55136 0 0 0
2 -0.11081 15.04877 -0.40313 0 0 0
3 0.13992 14.13657 -0.69801 0 0 0
4 0.42963 13.33393 -0.15997 0 0 0
5 0.96274 12.80117 0.71523 0 0 0
6 0.49666 13.30699 1.43626 0 0 0
7 1.15439 14.07702 1.43534 0 0 0
8 1.59002 15.02289 1.06778 0 0 0
9 0.65977 14.97190 0.88259 0 0 0
10 -0.20094 15.27018 1.11790 0 0 0
11 0.11525 15.84881 0.37301 0 0 0
12 0.40454 16.55741 -0.27785 0 0 0
13 1.00065 17.29972 -0.36668 0 0 0
14 1.15357 18.24137 -0.34228 0 0 0
15 0.89064 19.15094 -0.31347 0 0 0
16 0.53200 20.03161 -0.42386 0 0 0
17 0.57260 20.34274 0.49521 0 0 0
18 0.78956 21.12704 1.05841 0 0 0
19 1.34743 21.94342 0.76288 0 0 0
20 0.98067 22.84430 0.92944 0 0 0
21 0.86270 23.58929 1.52478 0 0 0
22 0.23130 24.02683 0.92218 0 0 0
23 -0.33813 24.75631 0.62050 0 0 0
24 -0.41926 25.61942 0.19960 0 0 0
25 -0.06750 25.96361 -0.70595 0 0 0
26 -0.29725 26.86080 -1.13437 0 0 0
27 -0.91893 27.73884 -1.21934 0 0 0
28 0.02087 27.89581 -1.50255 0 0 0
29 0.39544 28.66939 -2.00442 0 0 0
30 0.97070 29.28194 -2.50767 0 0 0
31 1.09306 30.03570 -3.04900 0 0 0
32 1.38971 30.93439 -2.94606 0 0 0
33 1.20741 31.88197 -2.72701 0 0 0
34 0.74618 32.61602 -3.04115 0 0 0
35 0.22533 33.49781 -3.03971 0 0 0
36 0.01836 34.50207 -3.13951 0 0 0
37 0.09521 35.43865 -3.34037 0 0 0
38 -0.74219 35.82336 -2.95122 0 0 0
39 -1.33433 36.33843 -3.60611 0 0 0
40 -2.16393 36.43696 -3.04269 0 0 0
41 -2.87946 36.78863 -2.52504 0 0 0
42 -3.05606 37.68759 -3.01009 0 0 0
43 -3.17297 38.67078 -3.01094 0 0 0
44 -3.38271 39.64072 -3.06459 0 0 0
45 -3.11850 40.68651 -3.30345 0 0 0
46 -3.02213 41.21205 -4.11412 0 0 0
47 -3.35232 42.07665 -3.65379 0 0 0
48 -3.25106 42.93230 -3.34456 0 0 0
49 -2.62754 43.65995 -3.03313 0 0 0
50 -2.40287 44.38750 -2.43320 0 0 0
51 -2.37734 45.40418 -2.23104 0 0 0
52 -1.76008 46.12756 -2.20257 0 0 0
53 -1.25782 46.91581 -1.87811 0 0 0
54 -0.35506 47.04269 -2.14422 0 0 0
55 -0.11810 47.90099 -1.68056 0 0 0
56 -0.29371 48.84869 -1.61397 0 0 0
57 -0.37110 49.74979 -2.02070 0 0 0
58 -0.79393 50.61386 -1.93308 0 0 0
59 -1.18479 51.48577 -2.20332 0 0 0
60 -0.79663 52.14561 -1.57941 0 0 0
61 -0.72113 53.05830 -1.42602 0 0 0
62 -0.02043 53.68101 -1.76997 0 0 0
63 0.34385 54.56265 -1.85162 0 0 0
64 0.08623 55.02005 -2.70557 0 0 0
65 -0.39419 54.82262 -3.56446 0 0 0
66 -0.38017 55.77252 -4.04001 0 0 0
67 -0.88627 56.28801 -3.42042 0 0 0
68 -1.25846 57.13249 -3.02986 0 0 0
69 -1.09371 57.29127 -2.10869 0 0 0
70 -1.09407 58.24902 -2.00309 0 0 0
71 -1.26508 59.24086 -1.78881 0 0 0
72 -1.84652 60.05189 -2.06117 0 0 0
73 -1.43651 60.39308 -1.22693 0 0 0
74 -1.68407 61.26952 -0.89833 0 0 0
75 -1.95103 62.01399 -1.56224 0 0 0
76 -1.16419 62.65077 -1.69837 0 0 0
77 -0.74124 63.33460 -1.13826 0 0 0
78 -0.93275 64.23695 -0.67299 0 0 0
79 -0.28368 64.94872 -0.89670 0 0 0
80 -0.17777 65.85170 -1.29297 0 0 0
81 0.09763 66.72984 -1.32270 0 0 0
82 -0.21848 67.46030 -2.00459 0 0 0
83 0.46591 67.75139 -1.34161 0 0 0
84 0.82986 67.97392 -0.44459 0 0 0
85 0.03684 68.49192 -0.46785 0 0 0
86 -0.01944 68.98859 -1.27553 0 0 0
87 0.00971 68.86493 -2.25883 0 0 0
88 0.81910 69.05568 -2.71262 0 0 0
89 0.63100 69.91367 -2.14856 0 0 0
90 0.44497 70.87329 -2.04878 0 0 0
91 0.12695 71.61284 -2.78241 0 0 0
92 0.09552 72.58623 -2.54381 0 0 0
93 -0.39651 72.99102 -1.84218 0 0 0
94 -0.32631 72.31845 -1.06194 0 0 0
95 0.23835 71.51701 -0.92583 0 0 0
96 0.25627 71.76994 0.09913 0 0 0
97 -0.03466 72.41805 0.78429 0 0 0
98 -0.23665 73.32800 1.13550 0 0 0
99 -0.65827 73.75134 0.36514 0 0 0
100 -0.60924 73.44302 -0.65191 0 0 0
ITEM: TIMESTEP
7000
ITEM: NUMBER OF ATOMS
100
ITEM: BOX BOUNDS pp pp pp
-1.0000000000000000e+03 1.0000000000000000e+03
-1.0000000000000000e+03 1.0000000000000000e+03
-1.0000000000000000e+03 1.0000000000000000e+03
ITEM: ATOMS id x y z ix iy iz
1 -0.66851 15.96689 -3.29456 0 0 0
2 -1.11128 16.39115 -2.53705 0 0 0
3 -0.39217 16.35663 -1.77920 0 0 0
4 0.36568 16.41675 -1.10214 0 0 0
5 1.01195 16.18933 -0.39355 0 0 0
6 1.88214 15.78676 -0.24009 0 0 0
7 2.82734 15.71850 -0.54981 0 0 0
8 3.37175 16.49465 -0.29070 0 0 0
9 2.91486 17.13639 0.38584 0 0 0
10 2.76627 17.32705 -0.57660 0 0 0
11 2.53659 18.28655 -0.47828 0 0 0
12 2.77907 19.19038 -0.10541 0 0 0
13 2.59983 19.95237 0.41420 0 0 0
14 3.18329 20.39937 -0.21668 0 0 0
15 3.29713 21.30338 -0.56085 0 0 0
16 2.36594 21.52744 -0.74840 0 0 0
17 1.56334 21.73711 -0.16387 0 0 0
18 0.69103 22.18034 -0.09438 0 0 0
19 0.57893 23.15295 -0.21915 0 0 0
20 1.08777 23.71960 -0.72131 0 0 0
21 0.93257 23.86019 -1.64464 0 0 0
22 1.16074 24.62750 -1.04347 0 0 0
23 1.18139 25.11899 -0.16622 0 0 0
24 1.41961 26.07832 -0.06237 0 0 0
25 0.97045 26.57590 -0.86400 0 0 0
26 0.78644 27.16935 -1.61361 0 0 0
27 0.83211 27.89033 -2.22450 0 0 0
28 1.52659 28.73908 -2.23958 0 0 0
29 1.49930 29.47214 -1.70480 0 0 0
30 0.71290 29.59228 -2.33862 0 0 0
31 0.68652 30.40263 -2.78817 0 0 0
32 0.24582 30.75535 -1.98991 0 0 0
33 0.51967 31.67699 -1.93250 0 0 0
34 0.17931 32.54932 -1.90162 0 0 0
35 0.24186 33.45004 -2.36619 0 0 0
36 0.85344 34.18213 -2.43139 0 0 0
37 0.46602 34.29784 -1.57101 0 0 0
38 -0.16419 34.86746 -1.17251 0 0 0
39 -0.82963 35.56360 -1.18771 0 0 0
40 -0.87270 36.54427 -1.24568 0 0 0
41 -0.89466 37.33312 -1.92397 0 0 0
42 -1.03928 38.27882 -1.69329 0 0 0
43 -0.81563 39.30171 -1.77331 0 0 0
44 -0.63827 40.04668 -1.16247 0 0 0
45 0.15390 40.59014 -1.03821 0 0 0
46 0.98884 41.00041 -1.42355 0 0 0
47 0.48547 41.82289 -1.65325 0 0 0
48 0.90626 42.66425 -1.53440 0 0 0
49 1.08721 43.66832 -1.76040 0 0 0
50 0.55734 44.42187 -1.58299 0 0 0
51 0.08294 45.08690 -2.06212 0 0 0
52 -0.20742 45.79845 -1.40171 0 0 0
53 -0.71807 46.47996 -0.88123 0 0 0
54 -0.59783 47.32628 -0.43838 0 0 0
55 -0.68569 48.29270 -0.19431 0 0 0
56 -0.76031 49.09022 -0.67969 0 0 0
57 -0.18920 49.56364 -0.01836 0 0 0
58 0.31364 50.44806 0.07547 0 0 0
59 -0.43461 50.92524 -0.42738 0 0 0
60 -0.76695 51.79676 -0.19635 0 0 0
61 -1.53365 52.29172 -0.47357 0 0 0
62 -2.13546 52.98413 -0.86672 0 0 0
63 -2.32137 53.96466 -1.04545 0 0 0
64 -2.14240 54.85463 -0.77541 0 0 0
65 -1.94956 55.56208 -1.58182 0 0 0
66 -0.92344 55.30364 -1.62060 0 0 0
67 -0.39072 56.12568 -1.73278 0 0 0
68 -0.50588 56.70336 -0.93986 0 0 0
69 -1.08447 57.40667 -0.49513 0 0 0
70 -1.41868 58.02826 0.20292 0 0 0
71 -1.59163 58.51321 1.02654 0 0 0
72 -0.88013 59.24095 0.84458 0 0 0
73 -0.13882 59.74714 0.43371 0 0 0
74 -0.71953 60.51701 0.10672 0 0 0
75 -1.40042 61.14826 0.06885 0 0 0
76 -0.97812 61.89619 0.63507 0 0 0
77 -0.67207 62.65862 -0.06371 0 0 0
78 -0.59843 63.51092 0.26293 0 0 0
79 -0.54297 64.40307 0.59837 0 0 0
80 -0.61008 65.20622 0.07421 0 0 0
81 -0.56970 65.89466 -0.54277 0 0 0
82 0.07931 66.69365 -0.80923 0 0 0
83 -0.67585 67.32124 -0.96041 0 0 0
84 -0.30195 68.00057 -0.36583 0 0 0
85 -1.18790 68.28568 -0.26792 0 0 0
86 -1.80910 69.12058 -0.48691 0 0 0
87 -2.22986 69.36769 -1.27481 0 0 0
88 -3.19890 69.34432 -1.34012 0 0 0
89 -3.33304 70.33653 -1.34233 0 0 0
90 -3.43497 71.22006 -1.66863 0 0 0
91 -3.11217 71.14543 -2.60618 0 0 0
92 -2.55715 71.68174 -2.08057 0 0 0
93 -2.42007 72.12835 -1.27490 0 0 0
94 -1.69041 72.77307 -1.23165 0 0 0
95 -0.86107 73.23384 -0.91568 0 0 0
96 -0.89457 72.82614 -0.02934 0 0 0
97 -0.59857 72.10967 0.50252 0 0 0
98 -0.63436 72.92814 1.10921 0 0 0
99 -0.59210 73.89412 1.32449 0 0 0
100 -0.39760 74.25745 2.18810 0 0 0
ITEM: TIMESTEP
8000
ITEM: NUMBER OF ATOMS
100
ITEM: BOX BOUNDS pp pp pp
-1.0000000000000000e+03 1.0000000000000000e+03