ITEM: TIMESTEP
0
ITEM: NUMBER OF ATOMS
200
ITEM: BOX BOUNDS pp pp pp
-1.0000000000000000e+03 1.0000000000000000e+03
-1.0000000000000000e+03 1.0000000000000000e+03
-1.0000000000000000e+03 1.0000000000000000e+03
ITEM: ATOMS id x y z ix iy iz
1 0.00000 0.00000 0.00000 0 0 0
2 0.00000 1.00000 0.00000 0 0 0
3 0.00000 1.86603 0.50000 0 0 0
4 0.00000 2.73205 0.00000 0 0 0
5 0.00000 3.59808 0.50000 0 0 0
6 0.00000 4.46410 0.00000 0 0 0
7 0.00000 5.33013 0.50000 0 0 0
8 0.00000 6.19615 0.00000 0 0 0
9 0.00000 7.06218 0.50000 0 0 0
10 0.00000 7.92820 0.00000 0 0 0
11 0.00000 8.79423 0.50000 0 0 0
12 0.00000 9.66025 0.00000 0 0 0
13 0.00000 10.52628 0.50000 0 0 0
14 0.00000 11.39230 0.00000 0 0 0
15 0.00000 12.25833 0.50000 0 0 0
16 0.00000 13.12436 0.00000 0 0 0
17 0.00000 13.99038 0.50000 0 0 0
18 0.00000 14.85641 0.00000 0 0 0
19 0.00000 15.72243 0.50000 0 0 0
20 0.00000 16.58846 0.00000 0 0 0
21 0.00000 17.45448 0.50000 0 0 0
22 0.00000 18.32051 0.00000 0 0 0
23 0.00000 19.18653 0.50000 0 0 0
24 0.00000 20.05256 0.00000 0 0 0
25 0.00000 20.91858 0.50000 0 0 0
26 0.00000 21.78461 0.00000 0 0 0
27 0.00000 22.65064 0.50000 0 0 0
28 0.00000 23.51666 0.00000 0 0 0
29 0.00000 24.38269 0.50000 0 0 0
30 0.00000 25.24871 0.00000 0 0 0
31 0.00000 26.11474 0.50000 0 0 0
32 0.00000 26.98076 0.00000 0 0 0
33 0.00000 27.84679 0.50000 0 0 0
34 0.00000 28.71281 0.00000 0 0 0
35 0.00000 29.57884 0.50000 0 0 0
36 0.00000 30.44486 0.00000 0 0 0
37 0.00000 31.31089 0.50000 0 0 0
38 0.00000 32.17691 0.00000 0 0 0
39 0.00000 33.04294 0.50000 0 0 0
40 0.00000 33.90897 0.00000 0 0 0
41 0.00000 34.77499 0.50000 0 0 0
42 0.00000 35.64102 0.00000 0 0 0
43 0.00000 36.50704 0.50000 0 0 0
44 0.00000 37.37307 0.00000 0 0 0
45 0.00000 38.23909 0.50000 0 0 0
46 0.00000 39.10512 0.00000 0 0 0
47 0.00000 39.97114 0.50000 0 0 0
48 0.00000 40.83717 0.00000 0 0 0
49 0.00000 41.70319 0.50000 0 0 0
50 0.00000 42.56922 0.00000 0 0 0
51 0.00000 43.43524 0.50000 0 0 0
52 0.00000 44.30127 0.00000 0 0 0
53 0.00000 45.16730 0.50000 0 0 0
54 0.00000 46.03332 0.00000 0 0 0
55 0.00000 46.89935 0.50000 0 0 0
56 0.00000 47.76537 0.00000 0 0 0
57 0.00000 48.63140 0.50000 0 0 0
58 0.00000 49.49742 0.00000 0 0 0
59 0.00000 50.36345 0.50000 0 0 0
60 0.00000 51.22947 0.00000 0 0 0
61 0.00000 52.09550 0.50000 0 0 0
62 0.00000 52.96152 0.00000 0 0 0
63 0.00000 53.82755 0.50000 0 0 0
64 0.00000 54.69358 0.00000 0 0 0
65 0.00000 55.55960 0.50000 0 0 0
66 0.00000 56.42563 0.00000 0 0 0
67 0.00000 57.29165 0.50000 0 0 0
68 0.00000 58.15768 0.00000 0 0 0
69 0.00000 59.02370 0.50000 0 0 0
70 0.00000 59.88973 0.00000 0 0 0
71 0.00000 60.75575 0.50000 0 0 0
72 0.00000 61.62178 0.00000 0 0 0
73 0.00000 62.48780 0.50000 0 0 0
74 0.00000 63.35383 0.00000 0 0 0
75 0.00000 64.21985 0.50000 0 0 0
76 0.00000 65.08588 0.00000 0 0 0
77 0.00000 65.95191 0.50000 0 0 0
78 0.00000 66.81793 0.00000 0 0 0
79 0.00000 67.68396 0.50000 0 0 0
80 0.00000 68.54998 0.00000 0 0 0
81 0.00000 69.41601 0.50000 0 0 0
82 0.00000 70.28203 0.00000 0 0 0
83 0.00000 71.14806 0.50000 0 0 0
84 0.00000 72.01408 0.00000 0 0 0
85 0.00000 72.88011 0.50000 0 0 0
86 0.00000 73.74613 0.00000 0 0 0
87 0.00000 74.61216 0.50000 0 0 0
88 0.00000 75.47818 0.00000 0 0 0
89 0.00000 76.34421 0.50000 0 0 0
90 0.00000 77.21024 0.00000 0 0 0
91 0.00000 78.07626 0.50000 0 0 0
92 0.00000 78.94229 0.00000 0 0 0
93 0.00000 79.80831 0.50000 0 0 0
94 0.00000 80.67434 0.00000 0 0 0
95 0.00000 81.54036 0.50000 0 0 0
96 0.00000 82.40639 0.00000 0 0 0
97 0.00000 83.27241 0.50000 0 0 0
98 0.00000 84.13844 0.00000 0 0 0
99 0.00000 85.00446 0.50000 0 0 0
100 0.00000 85.87049 0.00000 0 0 0
101 0.00000 86.73651 0.50000 0 0 0
102 0.00000 87.60254 0.00000 0 0 0
103 0.00000 88.46857 0.50000 0 0 0
104 0.00000 89.33459 0.00000 0 0 0
105 0.00000 90.20062 0.50000 0 0 0
106 0.00000 91.06664 0.00000 0 0 0
107 0.00000 91.93267 0.50000 0 0 0
108 0.00000 92.79869 0.00000 0 0 0
109 0.00000 93.66472 0.50000 0 0 0
110 0.00000 94.53074 0.00000 0 0 0
111 0.00000 95.39677 0.50000 0 0 0
112 0.00000 96.26279 0.00000 0 0 0
113 0.00000 97.12882 0.50000 0 0 0
114 0.00000 97.99485 0.00000 0 0 0
115 0.00000 98.86087 0.50000 0 0 0
116 0.00000 99.72690 0.00000 0 0 0
117 0.00000 100.59292 0.50000 0 0 0
118 0.00000 101.45895 0.00000 0 0 0
119 0.00000 102.32497 0.50000 0 0 0
120 0.00000 103.19100 0.00000 0 0 0
121 0.00000 104.05702 0.50000 0 0 0
122 0.00000 104.92305 0.00000 0 0 0
123 0.00000 105.78907 0.50000 0 0 0
124 0.00000 106.65510 0.00000 0 0 0
125 0.00000 107.52112 0.50000 0 0 0
126 0.00000 108.38715 0.00000 0 0 0
127 0.00000 109.25318 0.50000 0 0 0
128 0.00000 110.11920 0.00000 0 0 0
129 0.00000 110.98523 0.50000 0 0 0
130 0.00000 111.85125 0.00000 0 0 0
131 0.00000 112.71728 0.50000 0 0 0
132 0.00000 113.58330 0.00000 0 0 0
133 0.00000 114.44933 0.50000 0 0 0
134 0.00000 115.31535 0.00000 0 0 0
135 0.00000 116.18138 0.50000 0 0 0
136 0.00000 117.04740 0.00000 0 0 0
137 0.00000 117.91343 0.50000 0 0 0
138 0.00000 118.77945 0.00000 0 0 0
139 0.00000 119.64548 0.50000 0 0 0
140 0.00000 120.51151 0.00000 0 0 0
141 0.00000 121.37753 0.50000 0 0 0
142 0.00000 122.24356 0.00000 0 0 0
143 0.00000 123.10958 0.50000 0 0 0
144 0.00000 123.97561 0.00000 0 0 0
145 0.00000 124.84163 0.50000 0 0 0
146 0.00000 125.70766 0.00000 0 0 0
147 0.00000 126.57368 0.50000 0 0 0
148 0.00000 127.43971 0.00000 0 0 0
149 0.00000 128.30573 0.50000 0 0 0
150 0.00000 129.17176 0.00000 0 0 0
151 0.00000 130.03779 0.50000 0 0 0
152 0.00000 130.90381 0.00000 0 0 0
153 0.00000 131.76984 0.50000 0 0 0
154 0.00000 132.63586 0.00000 0 0 0
155 0.00000 133.50189 0.50000 0 0 0
156 0.00000 134.36791 0.00000 0 0 0
157 0.00000 135.23394 0.50000 0 0 0
158 0.00000 136.09996 0.00000 0 0 0
159 0.00000 136.96599 0.50000 0 0 0
160 0.00000 137.83201 0.00000 0 0 0
161 0.00000 138.69804 0.50000 0 0 0
162 0.00000 139.56406 0.00000 0 0 0
163 0.00000 140.43009 0.50000 0 0 0
164 0.00000 141.29612 0.00000 0 0 0
165 0.00000 142.16214 0.50000 0 0 0
166 0.00000 143.02817 0.00000 0 0 0
167 0.00000 143.89419 0.50000 0 0 0
168 0.00000 144.76022 0.00000 0 0 0
169 0.00000 145.62624 0.50000 0 0 0
170 0.00000 146.49227 0.00000 0 0 0
171 0.00000 147.35829 0.50000 0 0 0
172 0.00000 148.22432 0.00000 0 0 0
173 0.00000 149.09034 0.50000 0 0 0
174 0.00000 149.95637 0.00000 0 0 0
175 0.00000 150.82239 0.50000 0 0 0
176 0.00000 151.68842 0.00000 0 0 0
177 0.00000 152.55445 0.50000 0 0 0
178 0.00000 153.42047 0.00000 0 0 0
179 0.00000 154.28650 0.50000 0 0 0
180 0.00000 155.15252 0.00000 0 0 0
181 0.00000 156.01855 0.50000 0 0 0
182 0.00000 156.88457 0.00000 0 0 0
183 0.00000 157.75060 0.50000 0 0 0
184 0.00000 158.61662 0.00000 0 0 0
185 0.00000 159.48265 0.50000 0 0 0
186 0.00000 160.34867 0.00000 0 0 0
187 0.00000 161.21470 0.50000 0 0 0
188 0.00000 162.08073 0.00000 0 0 0
189 0.00000 162.94675 0.50000 0 0 0
190 0.00000 163.81278 0.00000 0 0 0
191 0.00000 164.67880 0.50000 0 0 0
192 0.00000 165.54483 0.00000 0 0 0
193 0.00000 166.41085 0.50000 0 0 0
194 0.00000 167.27688 0.00000 0 0 0
195 0.00000 168.14290 0.50000 0 0 0
196 0.00000 169.00893 0.00000 0 0 0
197 0.00000 169.87495 0.50000 0 0 0
198 0.00000 170.74098 0.00000 0 0 0
199 0.00000 171.60700 0.50000 0 0 0
200 0.00000 172.47303 0.00000 0 0 0
ITEM: TIMESTEP
1000
ITEM: NUMBER OF ATOMS
200
ITEM: BOX BOUNDS pp pp pp
-1.0000000000000000e+03 1.0000000000000000e+03
-1.0000000000000000e+03 1.0000000000000000e+03
-1.0000000000000000e+03 1.0000000000000000e+03
ITEM: ATOMS id x y z ix iy iz
1 -1.30080 4.00612 -2.22741 0 0 0
2 -0.65678 4.26895 -1.39138 0 0 0
3 -0.25895 5.02813 -0.87926 0 0 0
4 0.68381 5.03904 -0.74188 0 0 0
5 0.22816 5.47855 0.05756 0 0 0
6 -0.48539 6.26199 0.04156 0 0 0
7 -0.83208 6.90085 0.65369 0 0 0
8 -0.45335 7.60812 1.25426 0 0 0
9 -0.15145 8.44308 0.91230 0 0 0
10 -0.08779 9.36847 0.37996 0 0 0
11 -0.20215 10.27145 0.19622 0 0 0
12 -0.03624 11.05109 -0.38097 0 0 0
13 -0.43413 11.86354 -0.45782 0 0 0
14 -0.15772 12.77406 -0.47396 0 0 0
15 0.60082 13.37281 -0.64772 0 0 0
16 0.98993 14.18069 -0.87161 0 0 0
17 0.48768 14.98522 -0.60191 0 0 0
18 0.49152 15.93146 -0.73490 0 0 0
19 0.05130 16.71038 -1.01899 0 0 0
20 -0.46747 17.59118 -0.77038 0 0 0
21 -0.71010 18.44771 -0.42181 0 0 0
22 -0.70396 19.33210 -0.86843 0 0 0
23 -0.98988 20.19332 -0.47262 0 0 0
24 -0.96226 21.14005 -0.20872 0 0 0
25 -0.50453 21.91069 0.03175 0 0 0
26 -0.35045 22.90140 0.35482 0 0 0
27 -0.52011 23.66582 -0.28629 0 0 0
28 -0.67008 24.59564 -0.10892 0 0 0
29 -0.94014 25.42034 -0.48233 0 0 0
30 -0.82033 26.40352 -0.55063 0 0 0
31 -0.40403 27.26673 -0.30283 0 0 0
32 0.19207 27.68577 0.37930 0 0 0
33 0.70460 27.87024 1.20071 0 0 0
34 0.92200 28.87137 1.21072 0 0 0
35 1.64852 29.53166 1.34907 0 0 0
36 1.68005 30.49978 1.40074 0 0 0
37 1.34922 31.29189 0.81726 0 0 0
38 1.29993 32.22666 0.50790 0 0 0
39 0.75807 33.03346 0.77024 0 0 0
40 0.81238 34.00442 0.71748 0 0 0
41 1.18777 34.77952 0.20419 0 0 0
42 1.57548 35.60101 -0.01364 0 0 0
43 1.95657 36.46247 -0.36483 0 0 0
44 2.22186 37.41469 -0.27492 0 0 0
45 2.45100 38.39710 -0.09407 0 0 0
46 2.71878 39.28235 0.32242 0 0 0
47 2.73140 40.28635 -0.00792 0 0 0
48 2.47632 41.25785 -0.22958 0 0 0
49 2.83091 42.12869 0.02259 0 0 0
50 2.63903 42.96442 0.48651 0 0 0
51 2.39807 43.79761 0.77904 0 0 0
52 2.77820 44.62423 0.51998 0 0 0
53 2.18269 45.28432 -0.00158 0 0 0
54 2.12777 46.29863 0.09356 0 0 0
55 1.48130 47.07927 0.10261 0 0 0
56 0.94112 47.93930 0.15271 0 0 0
57 0.89364 48.88748 -0.25717 0 0 0
58 0.59077 49.75649 -0.55054 0 0 0
59 0.46016 50.76629 -0.69824 0 0 0
60 0.44434 51.73031 -0.44217 0 0 0
61 0.38854 52.71634 -0.35204 0 0 0
62 0.18478 53.67897 -0.07256 0 0 0
63 -0.32830 54.58590 0.06382 0 0 0
64 -0.64115 55.55871 0.21947 0 0 0
65 -1.32614 56.22386 0.51965 0 0 0
66 -2.13177 56.69708 0.26494 0 0 0
67 -2.53982 57.58462 0.36838 0 0 0
68 -2.55098 58.47055 -0.01623 0 0 0
69 -2.23498 59.34587 -0.20762 0 0 0
70 -2.06537 60.35349 -0.29845 0 0 0
71 -2.10991 61.33196 -0.43498 0 0 0
72 -2.72780 62.16418 -0.30126 0 0 0
73 -2.61453 63.05823 0.14174 0 0 0
74 -1.93330 63.70788 0.40308 0 0 0
75 -2.13140 64.71525 0.22007 0 0 0
76 -2.18709 65.75621 0.40369 0 0 0
77 -1.86448 66.69544 0.36574 0 0 0
78 -2.08156 67.45648 0.97204 0 0 0
79 -1.42534 67.99266 0.51509 0 0 0
80 -0.96498 68.87404 0.36050 0 0 0
81 -0.74035 69.74776 0.01263 0 0 0
82 -0.87001 70.64212 0.23266 0 0 0
83 -1.17585 71.63029 0.15407 0 0 0
84 -1.52571 72.47736 0.52080 0 0 0
85 -1.06776 73.14350 1.12693 0 0 0
86 -0.36006 73.76970 1.23968 0 0 0
87 -0.29842 74.55161 0.70786 0 0 0
88 -0.20620 75.18554 -0.01534 0 0 0
89 -0.30387 76.14185 -0.09183 0 0 0
90 0.01269 77.08142 -0.33378 0 0 0
91 0.05283 77.97293 0.02937 0 0 0
92 -0.34810 78.63308 0.66406 0 0 0
93 -0.27328 79.41698 1.14925 0 0 0
94 -0.69205 80.28459 1.17957 0 0 0
95 -0.35022 81.12375 0.72717 0 0 0
96 -0.32308 82.07240 0.31922 0 0 0
97 0.32259 82.59207 0.86398 0 0 0
98 0.55942 83.49802 0.78353 0 0 0
99 0.04518 84.30453 0.79451 0 0 0
100 -0.09237 85.26539 0.91620 0 0 0
101 0.16530 86.23896 0.87533 0 0 0
102 -0.01509 87.13626 0.78221 0 0 0
103 0.10093 88.01619 0.56770 0 0 0
104 -0.05491 88.55943 -0.24600 0 0 0
105 -0.38151 89.48541 -0.29090 0 0 0
106 -0.56922 90.36977 0.13290 0 0 0
107 -0.31457 91.34832 0.38734 0 0 0
108 0.03956 92.21412 0.32811 0 0 0
109 -0.46802 92.96170 0.65285 0 0 0
110 -0.78048 93.80553 0.23701 0 0 0
111 -1.05427 94.69221 0.50410 0 0 0
112 -0.76823 95.59480 0.40197 0 0 0
113 -0.51886 96.57362 0.18961 0 0 0
114 -1.01276 97.35232 0.56965 0 0 0
115 -1.61963 98.08913 0.41830 0 0 0
116 -1.93113 99.07423 0.24666 0 0 0
117 -1.66059 100.01791 0.47808 0 0 0
118 -1.54551 100.91632 0.93284 0 0 0
119 -1.28815 101.80650 0.55961 0 0 0
120 -1.12313 102.82558 0.54937 0 0 0
121 -0.80375 103.77738 0.72762 0 0 0
122 -0.71859 104.77769 0.83281 0 0 0
123 -1.04646 105.67672 0.69045 0 0 0
124 -1.37176 106.62893 0.91695 0 0 0
125 -1.22068 107.59987 1.09673 0 0 0
126 -1.12389 108.57883 0.82388 0 0 0
127 -1.84574 109.37443 0.78527 0 0 0
128 -1.62460 110.25064 0.29250 0 0 0
129 -1.24986 111.14852 0.22774 0 0 0
130 -1.33922 112.14751 0.10791 0 0 0
131 -1.36292 113.16622 -0.07266 0 0 0
132 -1.05621 114.07638 0.02125 0 0 0
133 -1.60016 114.99106 0.05452 0 0 0
134 -1.17951 115.90204 0.20224 0 0 0
135 -0.88173 116.77277 0.60416 0 0 0
136 -0.72495 117.59784 1.15598 0 0 0
137 -0.71649 118.55311 1.26313 0 0 0
138 -0.12077 119.31282 1.04140 0 0 0
139 0.07459 120.19887 0.61356 0 0 0
140 0.25438 121.11558 0.25772 0 0 0
141 0.75636 121.92885 0.23333 0 0 0
142 0.50570 122.94982 0.16121 0 0 0
143 0.54268 123.91733 -0.02392 0 0 0
144 0.59645 124.88741 -0.00761 0 0 0
145 0.32872 125.83124 -0.13406 0 0 0
146 0.79627 126.75745 -0.06913 0 0 0
147 0.53096 127.41442 -0.72963 0 0 0
148 0.34316 128.29548 -0.30693 0 0 0
149 0.48145 129.24424 -0.36533 0 0 0
150 0.39427 129.88671 -1.09646 0 0 0
151 0.85486 130.79140 -1.16197 0 0 0
152 0.80277 131.57720 -1.69991 0 0 0
153 1.03620 132.45585 -2.12565 0 0 0
154 1.11748 133.37637 -2.33376 0 0 0
155 1.27035 134.27966 -1.90420 0 0 0
156 1.12227 135.27853 -1.41569 0 0 0
157 1.40095 136.21721 -1.31667 0 0 0
158 1.44606 136.98448 -0.75290 0 0 0
159 2.11145 137.73660 -0.94107 0 0 0
160 1.75754 138.74200 -1.04586 0 0 0
161 2.16646 139.57858 -0.75426 0 0 0
162 1.87218 140.34943 -1.30774 0 0 0
163 2.43462 141.19061 -1.21625 0 0 0
164 1.89924 142.05687 -1.12610 0 0 0
165 1.28968 142.73151 -0.80861 0 0 0
166 1.45347 143.25732 -0.01275 0 0 0
167 1.38290 144.25593 0.01322 0 0 0
168 1.24969 144.84637 0.80753 0 0 0
169 1.60606 145.72347 0.61142 0 0 0
170 1.86856 146.64177 0.77426 0 0 0
171 2.25698 147.53790 0.90499 0 0 0
172 2.36872 148.40089 0.45688 0 0 0
173 2.27628 149.25015 0.10691 0 0 0
174 2.14318 150.16593 -0.17410 0 0 0
175 1.90569 151.06564 0.04946 0 0 0
176 1.71600 151.97861 -0.13330 0 0 0
177 1.88042 152.88591 -0.45606 0 0 0
178 2.00704 153.95565 -0.35197 0 0 0
179 2.12431 154.87996 0.01320 0 0 0
180 1.78713 155.80326 0.26838 0 0 0
181 1.56377 156.56425 0.87837 0 0 0
182 1.33807 157.54901 0.94132 0 0 0
183 0.60974 157.98443 0.45002 0 0 0
184 0.27279 158.80891 0.80613 0 0 0
185 -0.05202 159.59921 1.30648 0 0 0
186 -0.37567 160.39664 1.69978 0 0 0
187 -0.66483 161.32891 1.91602 0 0 0
188 -0.82790 162.35559 1.59175 0 0 0
189 -0.21283 163.04180 1.23751 0 0 0
190 0.20322 163.86015 1.55078 0 0 0
191 1.07042 164.15290 1.32589 0 0 0
192 1.26127 165.05843 1.44012 0 0 0
193 1.06071 165.98253 0.90660 0 0 0
194 1.68483 166.17496 0.14744 0 0 0
195 1.53524 167.13762 0.30819 0 0 0
196 1.29378 167.34209 -0.61935 0 0 0
197 0.75664 167.34410 -1.38196 0 0 0
198 0.38957 166.45301 -1.36203 0 0 0
199 -0.56592 166.75137 -1.21635 0 0 0
200 -0.12473 167.60410 -0.83602 0 0 0
ITEM: TIMESTEP
2000
ITEM: NUMBER OF ATOMS
200
ITEM: BOX BOUNDS pp pp pp
-1.0000000000000000e+03 1.0000000000000000e+03
-1.0000000000000000e+03 1.0000000000000000e+03
-1.0000000000000000e+03 1.0000000000000000e+03
ITEM: ATOMS id x y z ix iy iz
1 -1.68413 4.44749 1.58144 0 0 0
2 -1.74107 5.32217 1.75445 0 0 0
3 -1.00079 5.43120 1.18083 0 0 0
4 -0.45540 5.84548 0.45606 0 0 0
5 0.27713 6.39981 0.23365 0 0 0
6 0.02539 7.31162 0.13368 0 0 0
7 -0.26023 8.17398 -0.19107 0 0 0
8 -0.06255 8.98103 -0.65739 0 0 0
9 0.17857 9.68366 -1.28078 0 0 0
10 -0.57533 10.34489 -1.27556 0 0 0
11 -0.41017 11.22044 -1.53170 0 0 0
12 -0.27170 12.15990 -1.73931 0 0 0
13 -0.40156 13.02014 -1.40416 0 0 0
14 -0.38012 13.84854 -1.00772 0 0 0
15 -0.27708 14.79879 -0.54554 0 0 0
16 -0.01609 15.40753 0.11539 0 0 0
17 -0.27088 16.25738 0.70195 0 0 0
18 0.29049 17.03214 1.19211 0 0 0
19 0.45142 17.90219 0.70779 0 0 0
20 0.97326 18.63041 1.07731 0 0 0
21 1.28540 19.46118 0.57613 0 0 0
22 1.73629 20.32102 0.56651 0 0 0
23 1.22570 21.16501 0.32373 0 0 0
24 0.97463 22.09683 -0.06452 0 0 0
25 1.14987 23.02747 -0.25027 0 0 0
26 0.93874 23.97453 -0.23039 0 0 0
27 0.65361 24.95770 0.04001 0 0 0
28 -0.26122 25.28210 0.27624 0 0 0
29 -1.13974 25.75982 0.33737 0 0 0
30 -1.26658 26.76630 -0.12750 0 0 0
31 -0.65979 27.21255 -0.70234 0 0 0
32 -0.13488 28.02719 -0.38037 0 0 0
33 -0.01319 28.93901 0.06081 0 0 0
34 0.22196 29.54537 0.72486 0 0 0
35 0.12657 30.53663 0.62256 0 0 0
36 -0.09939 31.63226 0.59684 0 0 0
37 -0.20288 32.62589 0.64923 0 0 0
38 -0.31502 33.62779 0.40847 0 0 0
39 -0.22372 34.60057 0.22351 0 0 0
40 -0.20049 35.75015 0.18413 0 0 0
41 0.30191 36.68445 0.24808 0 0 0
42 0.92598 37.43780 -0.08101 0 0 0
43 1.35777 37.81622 -0.90598 0 0 0
44 1.96847 38.59932 -0.89713 0 0 0
45 2.34790 39.48452 -0.69097 0 0 0
46 2.34329 40.40006 -0.86883 0 0 0
47 2.07812 41.49863 -0.77162 0 0 0
48 2.03051 42.39829 -0.34887 0 0 0
49 2.18342 43.34358 -0.25506 0 0 0
50 2.10431 44.09526 0.39248 0 0 0
51 2.26065 45.08429 0.47265 0 0 0
52 1.28001 45.42902 0.20913 0 0 0
53 1.01549 46.37115 0.29119 0 0 0
54 1.72382 47.02731 0.37981 0 0 0
55 1.24219 47.82713 0.64187 0 0 0
56 1.12371 48.57892 1.36125 0 0 0
57 0.90982 49.56413 1.25828 0 0 0
58 0.68123 50.35019 0.73072 0 0 0
59 0.55017 51.29937 0.92865 0 0 0
60 0.67183 52.32572 0.69295 0 0 0
61 0.40276 53.25828 0.62053 0 0 0
62 -0.21723 54.03900 0.59874 0 0 0
63 -0.14522 55.03154 0.40217 0 0 0
64 0.11481 55.90308 0.10169 0 0 0
65 0.02101 56.80794 -0.11695 0 0 0
66 0.49115 57.65496 -0.45511 0 0 0
67 0.52799 58.61220 -0.48775 0 0 0
68 0.14509 59.52380 -0.28205 0 0 0
69 -0.13003 60.41014 -0.48712 0 0 0
70 -0.73913 61.13232 -0.81270 0 0 0
71 -0.71577 61.86865 -1.41341 0 0 0
72 -0.45930 62.63721 -0.79798 0 0 0
73 -0.97285 62.84987 -1.57322 0 0 0
74 -1.38237 63.69944 -1.35805 0 0 0
75 -1.15776 64.52745 -1.03704 0 0 0
76 -0.68841 65.37579 -0.65527 0 0 0
77 -1.23021 66.08128 -0.32393 0 0 0
78 -1.36898 67.03142 -0.66001 0 0 0
79 -1.79549 67.94569 -0.30962 0 0 0
80 -1.79766 68.84944 -0.48530 0 0 0
81 -1.97269 69.80658 -0.81763 0 0 0
82 -1.82207 70.81456 -0.76100 0 0 0
83 -1.46642 71.63084 -0.47895 0 0 0
84 -1.53576 72.55143 -0.20112 0 0 0
85 -1.71050 73.47801 0.33891 0 0 0
86 -2.05734 74.43158 0.25173 0 0 0
87 -2.35164 75.42185 0.34064 0 0 0
88 -1.93124 76.39371 0.35691 0 0 0
89 -1.32314 76.90926 -0.25145 0 0 0
90 -0.94969 77.80887 -0.02125 0 0 0
91 -0.45511 78.61554 -0.52182 0 0 0
92 -0.32259 79.33138 0.24837 0 0 0
93 -0.36025 80.27335 0.40462 0 0 0
94 0.20326 81.02368 0.16951 0 0 0
95 -0.02957 82.04663 0.17762 0 0 0
96 -0.38912 82.89380 -0.16015 0 0 0
97 -0.57162 83.77112 0.37155 0 0 0
98 -0.21276 84.68751 0.48566 0 0 0
99 0.04838 85.65368 0.40232 0 0 0
100 0.36234 86.54486 0.23694 0 0 0
101 0.33836 87.53458 0.33873 0 0 0
102 0.53861 88.44905 0.02051 0 0 0
103 0.59543 89.40548 -0.37540 0 0 0
104 0.22552 90.18472 -0.86364 0 0 0
105 0.45701 91.04901 -1.33884 0 0 0
106 0.93243 91.95044 -1.15421 0 0 0
107 1.13904 92.73575 -0.57505 0 0 0
108 0.80476 93.67599 -0.51047 0 0 0
109 1.49340 94.12264 -0.01976 0 0 0
110 1.48212 95.05295 0.26139 0 0 0
111 1.71802 96.01482 -0.02214 0 0 0
112 2.26889 96.62165 -0.56202 0 0 0
113 1.87699 97.40178 0.07944 0 0 0
114 1.22996 98.11982 0.06079 0 0 0
115 1.21651 99.05696 -0.31528 0 0 0
116 1.12043 99.99015 -0.75208 0 0 0
117 0.46916 100.71957 -0.84645 0 0 0
118 0.24260 101.62103 -0.66453 0 0 0
119 -0.03809 102.55563 -0.41619 0 0 0
120 0.06919 103.55623 -0.42012 0 0 0
121 0.07844 104.50383 -0.88965 0 0 0
122 0.05600 105.42361 -1.26280 0 0 0
123 -0.10536 106.36467 -1.52026 0 0 0
124 -0.01227 107.27414 -1.14999 0 0 0
125 -0.21580 107.95763 -0.44709 0 0 0
126 -0.14811 108.82721 -0.88877 0 0 0
127 -0.17101 109.83313 -0.91144 0 0 0
128 0.54567 110.36790 -0.53196 0 0 0
129 0.24805 111.14576 -0.95492 0 0 0
130 -0.04039 112.01117 -0.63822 0 0 0
131 -0.33712 112.97789 -0.83626 0 0 0
132 -0.99684 113.65803 -0.92464 0 0 0
133 -0.47362 114.41046 -0.66818 0 0 0
134 -0.84467 115.43710 -0.54041 0 0 0
135 -1.03287 116.48652 -0.78183 0 0 0
136 -1.36014 117.39731 -0.92933 0 0 0
137 -1.32686 118.33277 -0.73602 0 0 0
138 -0.72855 119.18033 -0.62913 0 0 0
139 -0.69987 120.08244 -0.18822 0 0 0
140 -0.55449 120.97797 -0.72798 0 0 0
141 -0.12800 121.35966 -1.62142 0 0 0
142 -0.91618 122.08172 -1.46281 0 0 0
143 -0.56176 122.94675 -1.11881 0 0 0
144 -0.28495 123.31551 -1.98565 0 0 0
145 -0.19677 124.33018 -1.98675 0 0 0
146 -0.39412 125.25770 -2.01040 0 0 0
147 -0.76675 126.06020 -2.32332 0 0 0
148 -0.76328 127.04763 -2.24932 0 0 0
149 -0.24453 127.64507 -1.65879 0 0 0
150 0.29105 128.41571 -2.13251 0 0 0
151 0.55484 129.28951 -1.65501 0 0 0
152 0.91219 130.23935 -1.60604 0 0 0
153 1.23177 131.18579 -1.90895 0 0 0
154 0.92472 132.12628 -1.77258 0 0 0
155 0.50452 132.88462 -2.26617 0 0 0
156 0.57556 133.88099 -2.30268 0 0 0
157 0.64177 134.76708 -1.96272 0 0 0
158 0.33705 135.63475 -1.56613 0 0 0
159 0.27004 136.58560 -1.43179 0 0 0
160 0.29828 137.53329 -1.32294 0 0 0
161 0.41897 138.42258 -0.89676 0 0 0
162 0.50566 139.36260 -0.74070 0 0 0
163 -0.00682 140.13157 -1.10437 0 0 0
164 0.13802 141.14018 -1.10968 0 0 0
165 -0.30469 141.80768 -0.54708 0 0 0
166 0.08514 142.63546 -0.20393 0 0 0
167 -0.01581 143.47822 0.40095 0 0 0
168 0.14714 144.45499 0.28676 0 0 0
169 -0.12081 145.32973 0.50305 0 0 0
170 0.04706 146.08327 0.00323 0 0 0
171 0.27617 146.98565 0.30574 0 0 0
172 0.82072 147.83504 0.32958 0 0 0
173 0.44533 148.76764 0.53896 0 0 0
174 0.07990 149.72558 0.70311 0 0 0
175 0.66334 150.58301 0.55876 0 0 0
176 0.96928 150.98710 1.37393 0 0 0
177 1.84124 151.02216 1.11392 0 0 0
178 2.29724 151.78239 0.79001 0 0 0
179 2.56570 152.74613 0.80566 0 0 0
180 2.88581 153.70316 0.77044 0 0 0
181 2.77991 154.56427 1.43481 0 0 0
182 2.44256 155.45420 1.93158 0 0 0
183 2.05719 156.28009 2.17581 0 0 0
184 1.60880 156.35159 1.27493 0 0 0
185 1.83865 157.30579 1.47809 0 0 0
186 1.97671 158.27917 1.33130 0 0 0
187 1.94718 159.22632 1.57416 0 0 0
188 2.24739 159.78772 2.26666 0 0 0
189 1.54974 160.29225 1.81546 0 0 0
190 1.77455 161.17889 2.05341 0 0 0
191 1.51997 162.12904 2.04449 0 0 0
192 0.63171 162.49792 1.98027 0 0 0
193 0.24671 162.24546 1.09531 0 0 0
194 -0.48153 162.20590 0.25465 0 0 0
195 -0.29336 163.19497 0.06097 0 0 0
196 0.21454 163.88185 0.51830 0 0 0
197 -0.30450 164.58561 -0.02544 0 0 0
198 -1.22590 164.75958 0.14796 0 0 0
199 -2.00912 165.32646 0.13152 0 0 0
200 -2.86645 165.73077 0.31748 0 0 0
ITEM: TIMESTEP
3000
ITEM: NUMBER OF ATOMS
200
ITEM: BOX BOUNDS pp pp pp
-1.0000000000000000e+03 1.0000000000000000e+03
-1.0000000000000000e+03 1.0000000000000000e+03
-1.0000000000000000e+03 1.0000000000000000e+03
ITEM: ATOMS id x y z ix iy iz
1 -0.44821 10.62795 0.84658 0 0 0
2 -0.26317 10.88027 1.74858 0 0 0
3 -1.14704 10.72005 1.91002 0 0 0
4 -1.83861 10.47662 1.25792 0 0 0
5 -2.66242 10.00866 1.01508 0 0 0
6 -2.74261 9.63744 0.14828 0 0 0
7 -2.77895 10.61801 -0.04248 0 0 0
8 -2.20206 11.07455 -0.67612 0 0 0
9 -2.35714 11.90064 -0.08928 0 0 0
10 -2.14573 12.30389 0.78731 0 0 0
11 -1.81587 12.95314 1.47701 0 0 0
12 -1.05812 13.53137 1.20037 0 0 0
13 -0.18684 13.90163 0.95791 0 0 0
14 0.22112 14.53664 0.42180 0 0 0
15 0.71526 15.43826 0.32945 0 0 0
16 0.46642 16.27452 -0.05030 0 0 0
17 0.20527 17.00792 0.57397 0 0 0
18 0.60521 17.90103 0.52029 0 0 0
19 1.07321 18.77083 0.74063 0 0 0
20 1.22179 19.78049 0.88277 0 0 0
21 1.22157 20.72826 0.73684 0 0 0
22 0.42248 21.43943 0.81651 0 0 0
23 0.20604 22.26059 0.34936 0 0 0
24 -0.07215 23.06792 -0.07398 0 0 0
25 -0.42920 23.63019 -0.70734 0 0 0
26 -0.64894 24.62443 -0.52358 0 0 0
27 -0.43701 25.34205 -1.08796 0 0 0
28 0.12544 25.98910 -1.68308 0 0 0
29 0.47340 26.76323 -2.11436 0 0 0
30 0.34408 27.74755 -2.17372 0 0 0
31 0.44023 28.57506 -2.64920 0 0 0
32 0.50598 29.52516 -2.50274 0 0 0
33 0.60511 30.46370 -2.54669 0 0 0
34 0.45614 31.14493 -3.18922 0 0 0
35 0.03295 31.91291 -3.73489 0 0 0
36 -0.35243 32.83828 -3.64398 0 0 0
37 -0.77508 33.78028 -3.41569 0 0 0
38 -1.21030 34.59699 -3.28130 0 0 0
39 -1.58468 35.47272 -2.84256 0 0 0
40 -1.83487 36.17608 -2.16702 0 0 0
41 -2.10162 37.09709 -1.61902 0 0 0
42 -2.08760 38.06422 -1.49598 0 0 0
43 -2.19326 39.05548 -1.31568 0 0 0
44 -2.22522 39.98597 -0.89973 0 0 0
45 -1.95322 40.97178 -0.88184 0 0 0
46 -2.15658 41.81225 -1.30700 0 0 0
47 -2.30077 42.74231 -1.03570 0 0 0
48 -1.70679 43.57644 -0.97751 0 0 0
49 -1.55360 44.52316 -0.62128 0 0 0
50 -2.11888 45.40844 -0.39912 0 0 0
51 -1.49680 45.84304 0.16729 0 0 0
52 -0.98522 46.64345 -0.31135 0 0 0
53 -0.87284 47.70363 -0.33457 0 0 0
54 -0.37884 48.44363 -0.64072 0 0 0
55 -0.13756 49.24995 -0.12459 0 0 0
56 -0.00274 50.35290 -0.16536 0 0 0
57 -0.43484 51.09110 -0.56830 0 0 0
58 -0.25768 52.00738 -0.38004 0 0 0
59 -0.04247 52.76711 -1.11732 0 0 0
60 0.37055 53.69858 -1.05671 0 0 0
61 0.54867 54.67683 -0.94868 0 0 0
62 0.37399 55.67771 -1.23489 0 0 0
63 0.37790 56.05776 -2.10395 0 0 0
64 -0.05763 56.84829 -2.48543 0 0 0
65 -0.91364 57.20035 -2.15918 0 0 0
66 -0.92818 58.14451 -2.48158 0 0 0
67 -1.25181 58.94054 -2.95249 0 0 0
68 -1.42802 59.76459 -2.39824 0 0 0
69 -1.15956 60.64071 -2.64303 0 0 0
70 -1.88301 61.23435 -2.88254 0 0 0
71 -1.81595 62.19088 -2.50139 0 0 0
72 -2.11135 63.07874 -2.16964 0 0 0
73 -2.27097 63.68167 -1.41882 0 0 0
74 -1.80540 64.57666 -1.64239 0 0 0
75 -1.63511 65.52287 -1.38097 0 0 0
76 -1.90981 66.32104 -0.81380 0 0 0
77 -1.35594 66.93694 -0.18692 0 0 0
78 -1.07067 67.82175 -0.48644 0 0 0
79 -0.64635 68.62839 -0.92930 0 0 0
80 -0.78623 69.55670 -1.20168 0 0 0
81 -0.42489 70.47862 -1.09412 0 0 0
82 0.23540 71.07544 -1.45847 0 0 0
83 -0.54758 71.68936 -1.35696 0 0 0
84 -0.00017 72.45953 -0.92263 0 0 0
85 -0.37177 73.24588 -0.41932 0 0 0
86 -0.22519 74.22205 -0.63198 0 0 0
87 0.14179 75.14601 -0.89962 0 0 0
88 0.91435 75.70323 -1.07086 0 0 0
89 0.67663 76.70441 -1.07686 0 0 0
90 0.75693 77.67991 -1.37884 0 0 0
91 0.48534 78.26225 -0.69219 0 0 0
92 0.91099 79.19003 -0.94892 0 0 0
93 0.26557 79.94286 -1.12155 0 0 0
94 -0.19226 80.77940 -0.81944 0 0 0
95 -0.02231 81.55435 -1.37743 0 0 0
96 0.16896 82.46797 -1.13401 0 0 0
97 0.16319 83.41934 -0.89800 0 0 0
98 0.36119 84.38951 -0.57970 0 0 0
99 0.67557 85.33860 -0.39326 0 0 0
100 1.06773 86.26222 -0.70039 0 0 0
101 1.40823 87.06682 -0.25737 0 0 0
102 1.60835 87.70735 0.36371 0 0 0
103 2.35884 88.26221 0.48193 0 0 0
104 2.07471 88.95804 -0.23665 0 0 0
105 1.90466 89.65052 0.42711 0 0 0
106 1.68278 90.59300 0.37192 0 0 0
107 1.71206 91.57328 0.21022 0 0 0
108 1.35084 92.44865 0.04732 0 0 0
109 1.23900 93.42252 -0.22590 0 0 0
110 1.37632 94.42090 -0.12243 0 0 0
111 1.21780 95.36891 -0.31719 0 0 0
112 0.80388 96.27366 -0.40207 0 0 0
113 0.57369 97.14558 -0.30958 0 0 0
114 -0.01668 98.05734 -0.45326 0 0 0
115 0.32794 98.87334 -0.80137 0 0 0
116 0.10734 99.83007 -0.56253 0 0 0
117 -0.18164 100.58593 0.06924 0 0 0
118 -0.08895 101.56742 0.35261 0 0 0
119 -0.24542 102.52983 0.54618 0 0 0
120 -0.47642 103.53227 0.69859 0 0 0
121 -1.01245 104.25472 0.89685 0 0 0
122 -1.03760 105.27793 0.86049 0 0 0
123 -0.29609 105.98714 0.69792 0 0 0
124 0.31424 106.69151 0.77695 0 0 0
125 0.80193 107.41179 0.41160 0 0 0
126 0.54021 108.33992 0.15321 0 0 0
127 0.68800 109.25411 0.21088 0 0 0
128 0.41836 110.21591 -0.26331 0 0 0
129 0.21826 111.17490 -0.46690 0 0 0
130 0.48112 112.13402 -0.73639 0 0 0
131 0.88289 113.03068 -0.94964 0 0 0
132 1.03378 113.89897 -0.60034 0 0 0
133 0.67657 114.70064 -0.16841 0 0 0
134 0.96689 115.75518 -0.00057 0 0 0
135 0.94554 116.34844 0.77449 0 0 0
136 0.25572 116.94320 0.45279 0 0 0
137 0.24304 117.78600 0.00721 0 0 0
138 0.01812 118.71499 -0.28453 0 0 0
139 -0.15909 119.63553 0.09067 0 0 0
140 -0.50848 120.45409 -0.20815 0 0 0
141 -0.92794 121.06192 -0.78727 0 0 0
142 -0.99042 121.84429 -1.51221 0 0 0
143 -1.59502 122.56227 -1.70945 0 0 0
144 -1.34129 123.12359 -2.46444 0 0 0
145 -1.12991 124.00143 -2.16493 0 0 0
146 -0.99576 125.01223 -2.12836 0 0 0
147 -1.16716 125.98806 -2.26582 0 0 0
148 -1.08417 126.98916 -2.00967 0 0 0
149 -1.06492 127.91610 -2.19435 0 0 0
150 -0.83413 128.91431 -1.88982 0 0 0
151 -0.56837 129.87337 -1.64469 0 0 0
152 0.25400 130.41742 -1.52163 0 0 0
153 0.17822 131.42237 -1.33049 0 0 0
154 -0.01628 132.28330 -0.95147 0 0 0
155 -0.32188 133.20632 -1.22286 0 0 0
156 0.09535 134.09303 -1.47785 0 0 0
157 0.09546 135.11203 -1.21848 0 0 0
158 -0.18541 136.03086 -0.88611 0 0 0
159 -0.95296 136.49420 -0.44743 0 0 0
160 -0.63761 136.95934 0.33295 0 0 0
161 -0.96255 137.88348 0.40154 0 0 0
162 -0.97880 138.90628 0.25032 0 0 0
163 -1.10415 139.99420 0.35031 0 0 0
164 -0.15822 140.08684 0.09446 0 0 0
165 0.30970 140.89672 -0.29862 0 0 0
166 0.51784 141.86614 -0.07484 0 0 0
167 0.33923 142.85326 -0.01221 0 0 0
168 0.10390 143.69447 0.28791 0 0 0
169 0.74693 144.14412 0.81481 0 0 0
170 0.83044 145.11514 0.85163 0 0 0
171 1.04669 146.00621 0.38835 0 0 0
172 0.53684 146.82910 0.41135 0 0 0
173 0.88338 147.65411 0.71624 0 0 0
174 1.11730 148.49846 1.02825 0 0 0
175 0.96663 149.44661 0.70837 0 0 0
176 1.07265 149.97300 -0.09600 0 0 0
177 0.80418 150.89023 -0.13372 0 0 0
178 1.01440 151.65989 -0.79765 0 0 0
179 1.52519 152.39673 -0.39866 0 0 0
180 1.35957 153.00285 0.34100 0 0 0
181 1.25365 153.90719 -0.02717 0 0 0
182 1.16192 154.81174 -0.42466 0 0 0
183 1.68795 155.49291 0.06193 0 0 0
184 1.79438 156.43469 0.17876 0 0 0
185 0.81062 156.79642 0.31137 0 0 0
186 0.02099 157.13753 0.78327 0 0 0
187 0.49775 157.89698 0.38268 0 0 0
188 1.45279 157.92206 0.07715 0 0 0
189 0.92885 158.74862 -0.11155 0 0 0
190 0.87706 159.74370 -0.23555 0 0 0
191 0.65362 160.56706 -0.70453 0 0 0
192 0.12532 161.39290 -0.57696 0 0 0
193 -0.68569 161.90211 -0.20732 0 0 0
194 -1.56260 161.95941 -0.71872 0 0 0
195 -1.69842 162.78872 -1.26513 0 0 0
196 -1.88990 163.56646 -0.67092 0 0 0
197 -2.34309 163.03995 0.06350 0 0 0
198 -3.06706 163.58346 0.41444 0 0 0
199 -2.71826 164.46949 0.50287 0 0 0
200 -2.91698 165.36428 0.84697 0 0 0
ITEM: TIMESTEP
4000
ITEM: NUMBER OF ATOMS
200
ITEM: BOX BOUNDS pp pp pp
-1.0000000000000000e+03 1.0000000000000000e+03
-1.0000000000000000e+03 1.0000000000000000e+03
-1.0000000000000000e+03 1.0000000000000000e+03
ITEM: ATOMS id x y z ix iy iz
1 0.08374 15.51367 -0.53326 0 0 0
2 0.36105 14.61919 -0.79601 0 0 0
3 0.23492 14.14334 -1.66825 0 0 0
4 0.50215 13.62928 -2.45040 0 0 0
5 0.35815 12.79096 -1.97102 0 0 0
6 -0.51795 12.44878 -2.06542 0 0 0
7 -1.16834 12.86015 -1.48569 0 0 0
8 -1.29672 13.18454 -0.59106 0 0 0