ITEM: TIMESTEP
0
ITEM: NUMBER OF ATOMS
201
ITEM: BOX BOUNDS pp pp pp
-1.0000000000000000e+03 1.0000000000000000e+03
-1.0000000000000000e+03 1.0000000000000000e+03
-1.0000000000000000e+03 1.0000000000000000e+03
ITEM: ATOMS id x y z ix iy iz
1 0.00000 0.00000 0.00000 0 0 0
2 0.00000 0.00000 1.00000 0 0 0
3 0.00000 -0.50000 1.86603 0 0 0
4 0.00000 0.00000 2.73205 0 0 0
5 0.00000 -0.50000 3.59808 0 0 0
6 0.00000 0.00000 4.46410 0 0 0
7 0.00000 -0.50000 5.33013 0 0 0
8 0.00000 0.00000 6.19615 0 0 0
9 0.00000 -0.50000 7.06218 0 0 0
10 0.00000 0.00000 7.92820 0 0 0
11 0.00000 -0.50000 8.79423 0 0 0
12 0.00000 0.00000 9.66025 0 0 0
13 0.00000 -0.50000 10.52628 0 0 0
14 0.00000 0.00000 11.39230 0 0 0
15 0.00000 -0.50000 12.25833 0 0 0
16 0.00000 0.00000 13.12436 0 0 0
17 0.00000 -0.50000 13.99038 0 0 0
18 0.00000 0.00000 14.85641 0 0 0
19 0.00000 -0.50000 15.72243 0 0 0
20 0.00000 0.00000 16.58846 0 0 0
21 0.00000 -0.50000 17.45448 0 0 0
22 0.00000 0.00000 18.32051 0 0 0
23 0.00000 -0.50000 19.18653 0 0 0
24 0.00000 0.00000 20.05256 0 0 0
25 0.00000 -0.50000 20.91858 0 0 0
26 0.00000 0.00000 21.78461 0 0 0
27 0.00000 -0.50000 22.65064 0 0 0
28 0.00000 0.00000 23.51666 0 0 0
29 0.00000 -0.50000 24.38269 0 0 0
30 0.00000 0.00000 25.24871 0 0 0
31 0.00000 -0.50000 26.11474 0 0 0
32 0.00000 0.00000 26.98076 0 0 0
33 0.00000 -0.50000 27.84679 0 0 0
34 0.00000 0.00000 28.71281 0 0 0
35 0.00000 -0.50000 29.57884 0 0 0
36 0.00000 0.00000 30.44486 0 0 0
37 0.00000 -0.50000 31.31089 0 0 0
38 0.00000 0.00000 32.17691 0 0 0
39 0.00000 -0.50000 33.04294 0 0 0
40 0.00000 0.00000 33.90897 0 0 0
41 0.00000 -0.50000 34.77499 0 0 0
42 0.00000 0.00000 35.64102 0 0 0
43 0.00000 -0.50000 36.50704 0 0 0
44 0.00000 0.00000 37.37307 0 0 0
45 0.00000 -0.50000 38.23909 0 0 0
46 0.00000 0.00000 39.10512 0 0 0
47 0.00000 -0.50000 39.97114 0 0 0
48 0.00000 0.00000 40.83717 0 0 0
49 0.00000 -0.50000 41.70319 0 0 0
50 0.00000 0.00000 42.56922 0 0 0
51 0.00000 -0.50000 43.43524 0 0 0
52 0.69273 -0.11325 44.04398 0 0 0
53 1.38545 -0.08269 44.76453 0 0 0
54 2.07818 0.55661 45.09834 0 0 0
55 2.77091 0.58717 45.81889 0 0 0
56 3.46363 1.22647 46.15270 0 0 0
57 4.15636 1.25704 46.87325 0 0 0
58 4.84909 1.89633 47.20706 0 0 0
59 5.54181 1.92690 47.92761 0 0 0
60 6.23454 2.56620 48.26142 0 0 0
61 6.92727 2.59676 48.98197 0 0 0
62 7.61999 3.23606 49.31578 0 0 0
63 8.31272 3.26662 50.03633 0 0 0
64 9.00545 3.90592 50.37013 0 0 0
65 9.69817 3.93649 51.09069 0 0 0
66 10.39090 4.57578 51.42449 0 0 0
67 11.08363 4.60635 52.14505 0 0 0
68 11.77635 5.24565 52.47885 0 0 0
69 12.46908 5.27621 53.19940 0 0 0
70 13.16181 5.91551 53.53321 0 0 0
71 13.85453 5.94607 54.25376 0 0 0
72 14.54726 6.58537 54.58757 0 0 0
73 15.23999 6.61594 55.30812 0 0 0
74 15.93271 7.25524 55.64193 0 0 0
75 16.62544 7.28580 56.36248 0 0 0
76 17.31817 7.92510 56.69629 0 0 0
77 18.01089 7.95566 57.41684 0 0 0
78 18.70362 8.59496 57.75065 0 0 0
79 19.39635 8.62553 58.47120 0 0 0
80 20.08907 9.26482 58.80501 0 0 0
81 20.78180 9.29539 59.52556 0 0 0
82 21.47453 9.93469 59.85937 0 0 0
83 22.16725 9.96525 60.57992 0 0 0
84 22.85998 10.60455 60.91373 0 0 0
85 23.55271 10.63511 61.63428 0 0 0
86 24.24543 11.27441 61.96809 0 0 0
87 24.93816 11.30498 62.68864 0 0 0
88 25.63089 11.94428 63.02244 0 0 0
89 26.32361 11.97484 63.74300 0 0 0
90 27.01634 12.61414 64.07680 0 0 0
91 27.70907 12.64470 64.79736 0 0 0
92 28.40179 13.28400 65.13116 0 0 0
93 29.09452 13.31456 65.85171 0 0 0
94 29.78725 13.95386 66.18552 0 0 0
95 30.47997 13.98443 66.90607 0 0 0
96 31.17270 14.62373 67.23988 0 0 0
97 31.86543 14.65429 67.96043 0 0 0
98 32.55815 15.29359 68.29424 0 0 0
99 33.25088 15.32415 69.01479 0 0 0
100 33.94361 15.96345 69.34860 0 0 0
101 34.63633 15.99402 70.06915 0 0 0
102 0.20729 -1.46327 43.26455 0 0 0
103 0.41457 -2.21214 42.63508 0 0 0
104 0.62186 -3.13171 42.96889 0 0 0
105 0.82914 -3.88058 42.33942 0 0 0
106 1.03643 -4.80015 42.67323 0 0 0
107 1.24371 -5.54902 42.04376 0 0 0
108 1.45100 -6.46859 42.37757 0 0 0
109 1.65828 -7.21745 41.74810 0 0 0
110 1.86557 -8.13702 42.08191 0 0 0
111 2.07286 -8.88589 41.45244 0 0 0
112 2.28014 -9.80546 41.78625 0 0 0
113 2.48743 -10.55433 41.15678 0 0 0
114 2.69471 -11.47390 41.49059 0 0 0
115 2.90200 -12.22277 40.86113 0 0 0
116 3.10928 -13.14234 41.19493 0 0 0
117 3.31657 -13.89120 40.56547 0 0 0
118 3.52385 -14.81077 40.89927 0 0 0
119 3.73114 -15.55964 40.26981 0 0 0
120 3.93843 -16.47921 40.60361 0 0 0
121 4.14571 -17.22808 39.97415 0 0 0
122 4.35300 -18.14765 40.30795 0 0 0
123 4.56028 -18.89652 39.67849 0 0 0
124 4.76757 -19.81609 40.01230 0 0 0
125 4.97485 -20.56495 39.38283 0 0 0
126 5.18214 -21.48452 39.71664 0 0 0
127 5.38942 -22.23339 39.08717 0 0 0
128 5.59671 -23.15296 39.42098 0 0 0
129 5.80400 -23.90183 38.79151 0 0 0
130 6.01128 -24.82140 39.12532 0 0 0
131 6.21857 -25.57027 38.49585 0 0 0
132 6.42585 -26.48984 38.82966 0 0 0
133 6.63314 -27.23871 38.20019 0 0 0
134 6.84042 -28.15827 38.53400 0 0 0
135 7.04771 -28.90714 37.90453 0 0 0
136 7.25499 -29.82671 38.23834 0 0 0
137 7.46228 -30.57558 37.60887 0 0 0
138 7.66957 -31.49515 37.94268 0 0 0
139 7.87685 -32.24402 37.31322 0 0 0
140 8.08414 -33.16359 37.64702 0 0 0
141 8.29142 -33.91246 37.01756 0 0 0
142 8.49871 -34.83202 37.35136 0 0 0
143 8.70599 -35.58089 36.72190 0 0 0
144 8.91328 -36.50046 37.05570 0 0 0
145 9.12056 -37.24933 36.42624 0 0 0
146 9.32785 -38.16890 36.76004 0 0 0
147 9.53514 -38.91777 36.13058 0 0 0
148 9.74242 -39.83734 36.46439 0 0 0
149 9.94971 -40.58621 35.83492 0 0 0
150 10.15699 -41.50577 36.16873 0 0 0
151 10.36428 -42.25464 35.53926 0 0 0
152 -0.90001 -0.42418 43.86446 0 0 0
153 -1.80002 -0.57313 44.27409 0 0 0
154 -2.70004 -0.29286 44.60790 0 0 0
155 -3.60005 -0.44181 45.01752 0 0 0
156 -4.50006 -0.16154 45.35133 0 0 0
157 -5.40007 -0.31050 45.76095 0 0 0
158 -6.30009 -0.03023 46.09476 0 0 0
159 -7.20010 -0.17918 46.50438 0 0 0
160 -8.10011 0.10109 46.83819 0 0 0
161 -9.00012 -0.04786 47.24781 0 0 0
162 -9.90013 0.23241 47.58162 0 0 0
163 -10.80015 0.08346 47.99124 0 0 0
164 -11.70016 0.36373 48.32505 0 0 0
165 -12.60017 0.21478 48.73467 0 0 0
166 -13.50018 0.49505 49.06848 0 0 0
167 -14.40020 0.34610 49.47810 0 0 0
168 -15.30021 0.62637 49.81191 0 0 0
169 -16.20022 0.47742 50.22154 0 0 0
170 -17.10023 0.75769 50.55534 0 0 0
171 -18.00024 0.60874 50.96497 0 0 0
172 -18.90026 0.88901 51.29877 0 0 0
173 -19.80027 0.74006 51.70840 0 0 0
174 -20.70028 1.02033 52.04220 0 0 0
175 -21.60029 0.87138 52.45183 0 0 0
176 -22.50030 1.15165 52.78563 0 0 0
177 -23.40032 1.00270 53.19526 0 0 0
178 -24.30033 1.28297 53.52907 0 0 0
179 -25.20034 1.13402 53.93869 0 0 0
180 -26.10035 1.41428 54.27250 0 0 0
181 -27.00037 1.26533 54.68212 0 0 0
182 -27.90038 1.54560 55.01593 0 0 0
183 -28.80039 1.39665 55.42555 0 0 0
184 -29.70040 1.67692 55.75936 0 0 0
185 -30.60041 1.52797 56.16898 0 0 0
186 -31.50043 1.80824 56.50279 0 0 0
187 -32.40044 1.65929 56.91241 0 0 0
188 -33.30045 1.93956 57.24622 0 0 0
189 -34.20046 1.79061 57.65584 0 0 0
190 -35.10048 2.07088 57.98965 0 0 0
191 -36.00049 1.92193 58.39927 0 0 0
192 -36.90050 2.20220 58.73308 0 0 0
193 -37.80051 2.05325 59.14271 0 0 0
194 -38.70052 2.33352 59.47651 0 0 0
195 -39.60054 2.18457 59.88614 0 0 0
196 -40.50055 2.46484 60.21994 0 0 0
197 -41.40056 2.31589 60.62957 0 0 0
198 -42.30057 2.59616 60.96337 0 0 0
199 -43.20059 2.44721 61.37300 0 0 0
200 -44.10060 2.72748 61.70680 0 0 0
201 -45.00061 2.57853 62.11643 0 0 0
ITEM: TIMESTEP
1000
ITEM: NUMBER OF ATOMS
201
ITEM: BOX BOUNDS pp pp pp
-1.0000000000000000e+03 1.0000000000000000e+03
-1.0000000000000000e+03 1.0000000000000000e+03
-1.0000000000000000e+03 1.0000000000000000e+03
ITEM: ATOMS id x y z ix iy iz
1 -2.94101 -1.42389 3.90527 0 0 0
2 -3.05947 -0.92420 4.81275 0 0 0
3 -2.22697 -0.80007 5.39989 0 0 0
4 -1.81041 -0.22343 6.09284 0 0 0
5 -0.89813 -0.13554 6.54460 0 0 0
6 -1.08462 -0.61488 7.30455 0 0 0
7 -0.89599 -1.51040 7.61155 0 0 0
8 -0.76215 -0.94815 8.38471 0 0 0
9 -0.46529 -1.27411 9.27986 0 0 0
10 0.19642 -0.94751 9.89628 0 0 0
11 -0.21133 -0.29509 10.49017 0 0 0
12 0.52574 -0.48488 11.19893 0 0 0
13 1.18108 -0.36574 11.94776 0 0 0
14 1.11209 -0.15408 12.87437 0 0 0
15 0.28220 0.09910 13.27516 0 0 0
16 0.26660 0.51628 14.16207 0 0 0
17 -0.12551 -0.20534 14.74536 0 0 0
18 -0.50819 0.39582 15.40659 0 0 0
19 -0.32791 -0.04583 16.36299 0 0 0
20 -0.65330 -0.19219 17.27446 0 0 0
21 -1.23564 0.00623 18.22339 0 0 0
22 -1.20380 0.32242 19.14825 0 0 0
23 -0.79196 0.86067 19.95546 0 0 0
24 -0.52576 0.70897 20.96085 0 0 0
25 -0.41334 1.29309 21.73394 0 0 0
26 -0.29661 0.67838 22.46501 0 0 0
27 -0.21446 0.47913 23.41797 0 0 0
28 -0.22266 0.98087 24.31214 0 0 0
29 0.38392 0.99461 25.18092 0 0 0
30 0.05424 0.92101 26.21445 0 0 0
31 0.18970 0.20761 26.96717 0 0 0
32 -0.20519 0.42984 27.86187 0 0 0
33 -0.34512 0.20374 28.87739 0 0 0
34 -0.10843 0.15430 29.80905 0 0 0
35 -0.63888 0.71903 30.49180 0 0 0
36 -1.04434 0.79363 31.44980 0 0 0
37 -1.10345 0.54836 32.45225 0 0 0
38 -0.69957 -0.03393 33.14941 0 0 0
39 -1.04779 0.33723 33.97759 0 0 0
40 -0.58356 0.00434 34.79882 0 0 0
41 -0.78074 0.14998 35.69650 0 0 0
42 -0.91248 0.49993 36.68955 0 0 0
43 -0.62081 0.10082 37.55820 0 0 0
44 -0.54544 0.12636 38.52049 0 0 0
45 -0.29085 -0.54738 39.22665 0 0 0
46 -0.72010 -0.90849 40.05444 0 0 0
47 -1.33526 -1.06861 40.85602 0 0 0
48 -1.40040 -0.81755 41.78975 0 0 0
49 -1.59079 -0.38771 42.64663 0 0 0
50 -1.26270 0.17866 43.40527 0 0 0
51 -1.90593 0.47952 44.03915 0 0 0
52 -1.09247 0.89174 44.52430 0 0 0
53 -0.66932 0.93896 45.40168 0 0 0
54 0.31580 1.02682 45.41497 0 0 0
55 1.18015 1.18323 45.91582 0 0 0
56 1.92942 1.58687 46.32910 0 0 0
57 2.85647 1.78697 46.51565 0 0 0
58 3.60883 1.97758 47.17754 0 0 0
59 4.52264 2.10623 47.54610 0 0 0
60 5.35484 2.24927 47.95475 0 0 0
61 6.15590 2.14101 48.55302 0 0 0
62 6.61421 2.72511 49.21584 0 0 0
63 7.41374 3.17697 49.65340 0 0 0
64 8.22762 2.99147 50.32572 0 0 0
65 9.07907 3.18021 50.83390 0 0 0
66 9.55745 3.73380 51.47835 0 0 0
67 10.17395 3.77320 52.23397 0 0 0
68 10.48953 4.22069 53.13213 0 0 0
69 11.31683 4.27057 53.70900 0 0 0
70 12.13464 4.73959 54.16126 0 0 0
71 13.02286 4.91828 54.60241 0 0 0
72 13.92630 5.32424 54.47987 0 0 0
73 14.43249 5.51848 55.33637 0 0 0
74 15.04107 6.28671 55.66626 0 0 0
75 15.92971 6.42341 56.11065 0 0 0
76 16.80603 6.81873 56.09008 0 0 0
77 17.39439 7.50936 55.64660 0 0 0
78 18.05171 7.12027 56.31776 0 0 0
79 18.44477 7.70469 57.09936 0 0 0
80 19.36156 8.06257 57.34377 0 0 0
81 19.58014 8.74366 58.02631 0 0 0
82 20.47676 9.20885 57.78473 0 0 0
83 21.20289 9.43886 58.40921 0 0 0
84 21.67497 9.71318 59.28160 0 0 0
85 21.97924 10.01616 60.16006 0 0 0
86 22.93295 10.15686 60.26680 0 0 0
87 23.74165 10.79669 60.54829 0 0 0
88 24.66298 10.59839 60.63909 0 0 0
89 25.28340 9.92795 60.96594 0 0 0
90 25.75791 10.69831 61.29101 0 0 0
91 26.21656 11.46949 61.73098 0 0 0
92 26.46565 12.07365 62.43893 0 0 0
93 27.41214 12.74085 62.51039 0 0 0
94 27.96346 11.98995 62.63565 0 0 0
95 28.65146 12.39578 63.20486 0 0 0
96 29.33925 12.90102 63.67674 0 0 0
97 29.73539 12.81704 64.57849 0 0 0
98 29.46642 12.14460 65.29716 0 0 0
99 29.42432 11.74410 66.19029 0 0 0
100 30.27715 12.14632 66.18770 0 0 0
101 31.19325 11.97854 66.47517 0 0 0
102 -1.87360 -0.43688 44.28587 0 0 0
103 -1.14917 -1.11236 44.26696 0 0 0
104 -0.71243 -2.07930 44.08925 0 0 0
105 -0.56050 -2.93141 43.56653 0 0 0
106 -0.45344 -3.78253 43.09908 0 0 0
107 -0.45539 -4.73954 43.02950 0 0 0
108 -0.52754 -5.57181 42.63088 0 0 0
109 -0.43983 -6.58721 42.82642 0 0 0
110 -0.41747 -7.50836 42.53775 0 0 0
111 0.19498 -8.08585 42.07196 0 0 0
112 0.59302 -8.73972 41.45228 0 0 0
113 1.18980 -9.46694 41.23633 0 0 0
114 1.25066 -10.35089 40.72061 0 0 0
115 1.57460 -11.31174 40.90073 0 0 0
116 1.52362 -12.28506 40.44355 0 0 0
117 1.71589 -13.23839 40.43690 0 0 0
118 2.41561 -13.84644 40.68445 0 0 0
119 3.02484 -14.78980 40.59226 0 0 0
120 3.24754 -15.70892 40.36398 0 0 0
121 3.69062 -16.58825 40.26973 0 0 0
122 3.82982 -17.56387 40.38022 0 0 0
123 3.83365 -18.40640 39.84449 0 0 0
124 3.71211 -19.23741 39.50160 0 0 0
125 4.30150 -19.97998 39.13979 0 0 0
126 4.47067 -20.89793 38.81443 0 0 0
127 4.46201 -21.75534 38.32839 0 0 0
128 4.88446 -22.30251 37.57338 0 0 0
129 5.28917 -23.15633 37.82884 0 0 0
130 5.20233 -24.03578 37.35631 0 0 0
131 4.98319 -24.98515 37.19405 0 0 0
132 4.56355 -25.71799 37.80484 0 0 0
133 4.30802 -26.66209 37.78346 0 0 0
134 4.63367 -27.57709 37.58537 0 0 0
135 4.98424 -28.48777 37.72642 0 0 0
136 5.78272 -29.01749 37.95382 0 0 0
137 6.19884 -29.82065 38.49359 0 0 0
138 6.40829 -30.74144 38.26377 0 0 0
139 7.22795 -31.14377 38.10129 0 0 0
140 7.80185 -31.82031 38.41940 0 0 0
141 8.16781 -32.79537 38.31622 0 0 0
142 7.80800 -33.52531 37.61554 0 0 0
143 7.87619 -34.54608 37.38335 0 0 0
144 8.48120 -35.32187 37.30241 0 0 0
145 8.79386 -36.09026 37.84572 0 0 0
146 8.91461 -36.69195 38.56780 0 0 0
147 9.05837 -37.01015 39.46973 0 0 0
148 8.93502 -37.86832 40.03191 0 0 0
149 9.24061 -38.60455 40.59874 0 0 0
150 10.01547 -39.15022 41.00048 0 0 0
151 9.80780 -40.00203 40.61074 0 0 0
152 -2.71715 0.70624 44.60909 0 0 0
153 -3.65984 0.98569 44.79802 0 0 0
154 -4.55202 1.23552 44.81320 0 0 0
155 -5.49706 0.85015 44.94773 0 0 0
156 -6.07763 0.24370 45.58007 0 0 0
157 -6.81880 0.17220 46.23288 0 0 0
158 -7.77720 0.02146 46.28970 0 0 0
159 -8.45576 0.59243 46.77081 0 0 0
160 -9.34588 0.51850 47.25093 0 0 0
161 -10.23670 0.63791 46.84297 0 0 0
162 -11.15462 0.68376 47.25537 0 0 0
163 -11.73382 0.24809 47.87937 0 0 0
164 -12.54947 0.22735 48.43908 0 0 0
165 -13.28545 0.86110 48.06623 0 0 0
166 -13.90626 0.44070 48.66446 0 0 0
167 -14.89354 0.43894 48.86513 0 0 0
168 -15.33943 1.30242 49.12734 0 0 0
169 -16.35771 1.04459 49.17875 0 0 0
170 -16.86689 1.69162 49.74818 0 0 0
171 -17.79889 1.91322 49.68200 0 0 0
172 -18.67795 2.33743 49.88908 0 0 0
173 -19.51892 2.41317 50.54562 0 0 0
174 -19.96080 2.32017 51.35833 0 0 0
175 -20.80468 2.70668 51.28650 0 0 0
176 -21.49188 2.55503 52.06338 0 0 0
177 -22.56760 2.55700 51.83764 0 0 0
178 -23.58046 2.79158 52.03642 0 0 0
179 -24.46432 2.38667 52.14593 0 0 0
180 -25.37083 2.36089 52.44759 0 0 0
181 -26.24827 2.45234 52.93710 0 0 0
182 -26.45222 2.15259 53.87066 0 0 0
183 -27.40206 2.30856 53.68134 0 0 0
184 -28.34097 1.96545 53.82264 0 0 0
185 -29.06545 2.52215 53.52892 0 0 0
186 -29.69494 2.73288 54.22856 0 0 0
187 -30.07985 2.61032 55.13422 0 0 0
188 -29.99169 2.82975 56.07631 0 0 0
189 -30.72288 2.59461 56.71760 0 0 0
190 -30.94563 2.18568 57.55849 0 0 0
191 -31.43969 2.26593 58.39227 0 0 0
192 -32.37202 2.37902 58.81914 0 0 0
193 -33.13760 2.69129 59.30941 0 0 0
194 -33.46001 2.48150 60.15834 0 0 0
195 -34.40951 2.19896 60.10398 0 0 0
196 -35.37772 2.22773 60.06662 0 0 0
197 -35.24501 1.60426 60.85272 0 0 0
198 -35.98468 0.94967 60.78514 0 0 0
199 -36.95765 0.71340 60.52763 0 0 0
200 -37.12579 0.82059 61.54054 0 0 0
201 -37.66541 1.58532 61.76983 0 0 0
ITEM: TIMESTEP
2000
ITEM: NUMBER OF ATOMS
201
ITEM: BOX BOUNDS pp pp pp
-1.0000000000000000e+03 1.0000000000000000e+03
-1.0000000000000000e+03 1.0000000000000000e+03
-1.0000000000000000e+03 1.0000000000000000e+03
ITEM: ATOMS id x y z ix iy iz
1 -3.82747 -0.05764 6.54147 0 0 0
2 -3.46726 -0.94281 6.96039 0 0 0
3 -2.83027 -0.96112 7.69033 0 0 0
4 -2.45329 -0.40105 8.33164 0 0 0
5 -2.08352 0.02705 9.15181 0 0 0
6 -1.69453 -0.90360 9.40813 0 0 0
7 -0.80037 -0.41056 9.64531 0 0 0
8 -0.58818 -0.92300 10.48052 0 0 0
9 -0.21757 -1.05578 11.41873 0 0 0
10 -0.59899 -1.10141 12.36595 0 0 0
11 -1.09651 -0.61965 13.01441 0 0 0
12 -1.53360 -0.75377 13.93023 0 0 0
13 -1.19518 -0.33800 14.82634 0 0 0
14 -1.52481 -0.37492 15.75847 0 0 0
15 -1.99728 -0.50804 16.61732 0 0 0
16 -1.73362 -0.16759 17.47290 0 0 0
17 -1.06394 0.18952 18.05942 0 0 0
18 -0.13120 0.30458 18.21640 0 0 0
19 -0.59448 -0.40040 18.85620 0 0 0
20 -1.51858 -0.50772 19.03160 0 0 0
21 -1.66513 -0.52938 20.11182 0 0 0
22 -2.42363 -0.34460 20.70047 0 0 0
23 -2.39074 -0.48418 21.70502 0 0 0
24 -2.16907 0.00300 22.48127 0 0 0
25 -2.06658 -0.07855 23.43558 0 0 0
26 -1.86016 -0.51826 24.39168 0 0 0
27 -1.70946 -0.14491 25.30129 0 0 0
28 -1.33761 -0.04205 26.23598 0 0 0
29 -1.23196 0.54177 27.04254 0 0 0
30 -0.55590 1.16805 26.94172 0 0 0
31 0.03247 1.23495 27.70075 0 0 0
32 -0.73506 0.97578 28.29193 0 0 0
33 -0.42250 0.93661 29.16621 0 0 0
34 0.07305 0.95371 30.04162 0 0 0
35 0.17157 0.59360 30.93790 0 0 0
36 0.00679 0.92327 31.92920 0 0 0
37 0.33761 0.19400 32.45060 0 0 0
38 0.68839 0.15947 33.40113 0 0 0
39 1.15974 0.72764 34.02525 0 0 0
40 0.32500 1.05412 34.55754 0 0 0
41 0.22926 1.42999 35.42388 0 0 0
42 -0.36890 0.95311 36.00667 0 0 0
43 -0.06298 1.17821 36.94245 0 0 0
44 0.38466 0.97579 37.79792 0 0 0
45 0.69487 0.79464 38.77429 0 0 0
46 0.69653 0.30872 39.69739 0 0 0
47 0.56127 0.01602 40.73867 0 0 0
48 0.18356 -0.17103 41.61503 0 0 0
49 -0.22539 -0.71318 42.46279 0 0 0
50 -0.43264 -0.83283 43.40749 0 0 0
51 -0.37541 -1.37052 44.27153 0 0 0
52 0.37846 -0.97985 44.70936 0 0 0
53 1.05239 -0.45314 45.15209 0 0 0
54 1.74391 0.12404 45.59276 0 0 0
55 2.12752 0.77172 46.26801 0 0 0
56 3.15479 0.73763 46.44013 0 0 0
57 3.56765 1.30450 47.15512 0 0 0
58 3.98720 1.83236 47.87168 0 0 0
59 3.83864 2.31790 48.69906 0 0 0
60 4.72569 2.40504 49.25496 0 0 0
61 4.55236 2.92407 50.13079 0 0 0
62 5.40805 3.00491 50.61348 0 0 0
63 6.23035 2.51114 50.52933 0 0 0
64 6.84621 3.17894 50.92448 0 0 0
65 7.07220 3.91470 51.48591 0 0 0
66 7.89667 4.24917 51.84859 0 0 0
67 8.44121 4.05755 52.62757 0 0 0
68 9.05042 4.79553 52.77130 0 0 0
69 9.85776 4.98225 53.23952 0 0 0
70 10.79238 4.62807 53.47866 0 0 0
71 11.05026 5.47528 53.93635 0 0 0
72 11.67789 5.91199 54.47819 0 0 0
73 12.48589 5.46224 54.78720 0 0 0
74 13.19862 6.19271 54.89355 0 0 0
75 14.09951 6.48154 55.17153 0 0 0
76 14.60240 6.80864 55.94872 0 0 0
77 15.40656 7.28467 55.91639 0 0 0
78 15.98963 6.88998 56.53876 0 0 0
79 16.69899 7.05353 57.19017 0 0 0
80 17.19592 7.36274 58.02781 0 0 0
81 18.17507 7.45604 58.09270 0 0 0
82 19.13248 7.02919 58.07695 0 0 0
83 20.07954 6.78870 58.24573 0 0 0
84 20.95406 6.46101 58.59572 0 0 0
85 21.35526 6.97216 59.27681 0 0 0
86 21.77129 7.83200 59.36164 0 0 0
87 22.30504 8.46396 59.99642 0 0 0
88 22.69629 8.70189 60.89183 0 0 0
89 23.39976 9.35643 61.01050 0 0 0
90 24.22829 9.02588 61.47928 0 0 0
91 24.95068 9.20341 62.04071 0 0 0
92 25.55891 9.84390 62.57511 0 0 0
93 26.09777 10.23187 63.30368 0 0 0
94 26.74242 10.55305 64.02546 0 0 0
95 27.01122 10.28718 64.93102 0 0 0
96 27.71592 10.74331 64.40015 0 0 0
97 27.78572 11.71972 64.10683 0 0 0
98 27.93072 12.60801 63.71193 0 0 0
99 28.89825 12.92701 63.68265 0 0 0
100 28.95560 13.81209 63.85617 0 0 0
101 28.45244 14.43530 64.39817 0 0 0
102 -0.22413 -2.24540 44.02530 0 0 0
103 -0.10531 -2.96586 43.39617 0 0 0
104 0.02267 -3.93025 43.31673 0 0 0
105 0.03717 -4.82969 42.97604 0 0 0
106 0.37543 -5.52005 42.34662 0 0 0
107 0.79205 -6.24795 42.83782 0 0 0
108 0.92147 -7.06296 43.46832 0 0 0
109 1.44917 -7.76006 43.06714 0 0 0
110 2.10523 -8.30627 42.60123 0 0 0
111 1.71858 -8.57541 41.76618 0 0 0
112 1.34704 -9.38672 41.35850 0 0 0
113 0.84791 -10.02065 40.81849 0 0 0
114 1.17030 -10.35433 39.86466 0 0 0
115 2.15623 -10.29898 39.51573 0 0 0
116 2.78746 -11.02019 39.33861 0 0 0
117 2.59604 -11.79400 39.94845 0 0 0
118 2.67173 -12.74585 40.05740 0 0 0
119 2.89805 -13.74295 40.23748 0 0 0
120 3.00573 -14.65595 39.93175 0 0 0
121 3.79582 -15.27309 39.97361 0 0 0
122 4.09651 -16.15384 39.60106 0 0 0
123 4.26688 -17.12671 39.58850 0 0 0
124 4.05910 -18.02870 39.25938 0 0 0
125 4.04634 -19.02754 39.05934 0 0 0
126 4.24701 -19.94834 38.59903 0 0 0
127 3.89648 -20.87716 38.84041 0 0 0
128 4.42166 -21.70262 38.77363 0 0 0
129 5.07679 -22.48502 38.89329 0 0 0
130 5.81533 -23.09252 38.81917 0 0 0
131 6.75243 -23.15455 38.67774 0 0 0
132 7.21733 -23.98169 38.58607 0 0 0
133 7.55091 -24.80473 38.81158 0 0 0
134 7.44637 -25.79214 38.56059 0 0 0
135 7.13611 -26.73993 38.21730 0 0 0
136 6.65935 -27.57002 38.08874 0 0 0
137 6.41780 -28.44061 38.59125 0 0 0
138 6.17516 -29.50301 38.82540 0 0 0
139 6.54080 -30.36248 38.81704 0 0 0
140 7.31606 -30.78659 39.09274 0 0 0
141 7.93636 -31.26155 39.59332 0 0 0
142 8.28100 -32.11214 39.41686 0 0 0
143 8.44676 -32.56084 38.52015 0 0 0
144 9.05839 -32.80489 39.20455 0 0 0
145 9.02434 -33.42368 39.97532 0 0 0
146 8.75018 -33.94077 39.25949 0 0 0
147 9.08905 -34.67127 39.91657 0 0 0
148 9.71181 -35.42876 39.97006 0 0 0
149 9.99271 -36.25965 39.54831 0 0 0
150 10.90428 -36.36259 39.29938 0 0 0
151 11.30855 -36.65055 38.46060 0 0 0
152 -1.23684 -1.39423 44.69346 0 0 0
153 -2.18484 -1.20744 44.89790 0 0 0
154 -3.16172 -1.18505 44.57369 0 0 0
155 -4.11229 -1.06579 44.95006 0 0 0
156 -5.12242 -0.95311 45.09492 0 0 0
157 -6.01494 -0.47953 45.20965 0 0 0
158 -6.33444 -0.18415 46.07397 0 0 0
159 -7.26801 -0.06198 46.20792 0 0 0
160 -8.15227 -0.04503 46.50633 0 0 0
161 -8.63486 0.70587 46.82415 0 0 0
162 -9.38791 1.16355 47.46282 0 0 0
163 -10.23676 1.19231 46.94201 0 0 0
164 -11.22927 1.40942 46.86508 0 0 0
165 -12.05485 1.66557 47.43079 0 0 0
166 -12.86337 1.82352 47.99905 0 0 0
167 -12.76989 1.11723 48.63005 0 0 0
168 -13.61662 0.87038 49.05869 0 0 0
169 -14.48577 1.06516 49.38224 0 0 0
170 -15.26401 1.02071 50.11423 0 0 0
171 -16.18980 1.04900 50.34915 0 0 0
172 -17.13071 1.40450 50.20419 0 0 0
173 -17.77903 2.13267 50.19780 0 0 0
174 -18.66006 2.51721 50.14780 0 0 0
175 -19.61843 2.46252 50.12274 0 0 0
176 -20.32307 2.76412 50.90775 0 0 0
177 -21.34908 2.80659 51.11478 0 0 0
178 -22.33562 2.60930 50.99261 0 0 0
179 -23.20316 2.99373 51.30506 0 0 0
180 -23.70760 3.28473 52.04945 0 0 0
181 -24.66644 3.39706 52.30611 0 0 0
182 -25.63192 3.04727 52.51500 0 0 0
183 -26.48577 2.93702 52.97984 0 0 0
184 -26.61578 2.84767 53.98769 0 0 0
185 -27.47514 3.27536 53.78522 0 0 0
186 -27.44688 2.94142 54.78540 0 0 0
187 -27.29298 2.03882 55.29448 0 0 0
188 -28.14102 2.15634 55.75189 0 0 0
189 -28.63835 1.37876 55.39752 0 0 0
190 -29.64805 1.59346 55.47628 0 0 0
191 -30.35397 0.90065 55.15779 0 0 0
192 -30.54768 0.23896 55.90092 0 0 0
193 -30.25471 0.39832 56.85414 0 0 0
194 -31.07573 0.03654 57.09917 0 0 0
195 -31.06896 0.47928 57.96847 0 0 0
196 -31.99757 0.83691 57.81529 0 0 0
197 -32.68214 1.31103 58.51303 0 0 0
198 -32.82336 1.39613 59.39547 0 0 0
199 -33.74992 1.35905 59.01298 0 0 0
200 -34.22604 1.85030 59.71057 0 0 0
201 -33.50216 2.48403 59.63144 0 0 0
ITEM: TIMESTEP
3000
ITEM: NUMBER OF ATOMS
201
ITEM: BOX BOUNDS pp pp pp
-1.0000000000000000e+03 1.0000000000000000e+03
-1.0000000000000000e+03 1.0000000000000000e+03
-1.0000000000000000e+03 1.0000000000000000e+03
ITEM: ATOMS id x y z ix iy iz
1 -0.20077 -2.17568 8.91087 0 0 0
2 0.33461 -1.38515 8.66615 0 0 0
3 -0.09738 -0.80842 9.32349 0 0 0
4 -1.00011 -0.97003 9.60073 0 0 0
5 -1.14610 -1.01543 10.57195 0 0 0
6 -0.57972 -1.49508 11.27666 0 0 0
7 -0.04290 -1.45474 12.12672 0 0 0
8 -0.71218 -1.68452 12.90776 0 0 0
9 0.09798 -1.62411 13.48509 0 0 0
10 0.72281 -0.81139 13.49034 0 0 0
11 0.87602 -0.64413 14.38430 0 0 0
12 1.27470 -0.46593 15.23607 0 0 0
13 0.36976 -0.89903 15.41071 0 0 0
14 -0.12503 -1.65276 15.41243 0 0 0
15 -0.13944 -1.82451 16.31314 0 0 0
16 0.49684 -1.41883 17.01527 0 0 0
17 0.17959 -0.89305 17.72898 0 0 0
18 -0.00546 -0.12992 18.28692 0 0 0
19 -0.26501 0.34414 19.08876 0 0 0
20 -0.08392 0.25710 20.20263 0 0 0
21 -0.21601 0.66966 21.05910 0 0 0
22 -0.09901 0.58483 22.03801 0 0 0
23 -0.01057 0.26772 23.00606 0 0 0
24 0.33281 -0.14831 23.89488 0 0 0
25 -0.03726 0.58372 24.44720 0 0 0
26 0.29536 1.52362 24.83043 0 0 0
27 1.21836 1.74705 25.25360 0 0 0
28 1.06136 0.91697 25.74391 0 0 0
29 0.48633 0.80123 26.49677 0 0 0
30 0.57065 0.38527 27.35046 0 0 0
31 0.67080 0.29375 28.31152 0 0 0
32 0.54552 0.29692 29.24487 0 0 0
33 0.06202 0.08905 30.04814 0 0 0
34 0.06743 -0.56786 30.74083 0 0 0
35 0.45876 -0.70714 31.66524 0 0 0
36 -0.08066 -1.13153 32.34975 0 0 0
37 0.11840 -1.09306 33.27694 0 0 0
38 0.35305 -0.94312 34.17084 0 0 0
39 0.71385 -0.18670 34.70740 0 0 0
40 0.02317 0.34056 35.24811 0 0 0
41 0.41841 -0.21459 35.91956 0 0 0
42 0.25055 -0.18433 36.89137 0 0 0
43 -0.36131 -0.11397 37.72190 0 0 0
44 -0.31637 -0.10271 38.79948 0 0 0
45 -0.28693 -0.57752 39.69008 0 0 0
46 -0.61007 -0.61017 40.63665 0 0 0
47 -0.19140 -0.06279 41.31795 0 0 0
48 -0.08220 0.00036 42.32797 0 0 0
49 -0.20817 0.57220 43.12202 0 0 0
50 -0.48520 0.88624 43.96232 0 0 0
51 -0.65345 0.17042 44.59957 0 0 0
52 -0.18541 0.85005 45.02492 0 0 0
53 0.59354 0.86644 45.52607 0 0 0
54 1.14853 1.48655 46.20030 0 0 0
55 2.17440 1.58524 46.09750 0 0 0
56 2.90146 2.24246 46.28713 0 0 0
57 3.92285 2.15540 46.43888 0 0 0
58 4.55825 1.84947 47.06906 0 0 0
59 5.29057 1.88196 47.64030 0 0 0
60 5.41374 2.10630 48.62333 0 0 0
61 5.60435 2.89506 49.27944 0 0 0
62 6.42229 3.16876 49.68661 0 0 0
63 7.28235 3.54720 50.07950 0 0 0
64 7.62321 3.94156 50.92216 0 0 0
65 8.20758 4.44417 51.48743 0 0 0
66 9.01565 4.92964 51.79838 0 0 0
67 9.74477 5.63568 51.76027 0 0 0
68 10.32621 6.46631 52.02482 0 0 0
69 11.05120 6.67050 51.42725 0 0 0
70 11.89130 6.93369 51.83641 0 0 0
71 12.05150 6.42735 52.62120 0 0 0
72 12.74583 7.01059 53.09405 0 0 0
73 12.88423 6.32397 53.85640 0 0 0
74 13.43335 6.85632 54.62492 0 0 0
75 14.08942 7.70764 54.56668 0 0 0
76 14.88280 7.56962 55.06802 0 0 0
77 15.15943 8.10223 55.86158 0 0 0
78 16.08152 7.44027 55.88294 0 0 0
79 16.95341 7.75931 56.02865 0 0 0
80 17.63229 8.30048 56.46768 0 0 0
81 17.86235 8.48272 57.48621 0 0 0
82 18.39917 8.52015 58.23894 0 0 0
83 19.26454 8.23722 58.70609 0 0 0
84 20.19835 8.22568 58.96357 0 0 0
85 20.48908 7.93642 59.86295 0 0 0
86 20.54320 7.75291 60.83037 0 0 0
87 21.48517 7.62832 60.97570 0 0 0
88 22.30240 8.08394 61.20510 0 0 0
89 22.84184 8.90162 61.31265 0 0 0
90 23.50534 8.71091 61.92386 0 0 0
91 23.74277 8.69367 62.82941 0 0 0
92 24.60945 8.88448 62.96454 0 0 0
93 25.52924 9.16553 62.98457 0 0 0
94 25.65633 9.22593 64.01418 0 0 0
95 26.71028 9.29649 63.96774 0 0 0
96 26.60333 9.97655 64.60359 0 0 0
97 26.79702 10.86357 64.35286 0 0 0
98 26.90731 11.09410 63.43231 0 0 0
99 27.24339 11.94491 62.71923 0 0 0
100 27.05828 11.75753 61.72816 0 0 0
101 26.25999 12.19904 61.94098 0 0 0
102 -0.38568 -0.77632 44.69003 0 0 0
103 -0.63522 -1.66492 44.39792 0 0 0
104 -0.51777 -2.62860 44.11752 0 0 0
105 -0.52921 -3.44432 43.55193 0 0 0
106 -0.36461 -4.21566 42.89417 0 0 0
107 -0.15132 -5.05626 42.45831 0 0 0
108 -0.25918 -6.07171 42.29139 0 0 0
109 0.23632 -6.87903 42.12159 0 0 0
110 0.99406 -7.50119 42.03497 0 0 0
111 0.99090 -8.50813 41.97225 0 0 0
112 1.26636 -9.38883 42.39964 0 0 0
113 1.80843 -10.13733 42.12591 0 0 0
114 2.10110 -10.92536 41.69618 0 0 0
115 2.23703 -11.00561 40.73453 0 0 0
116 2.35174 -11.94467 40.48157 0 0 0
117 2.86104 -12.79366 40.74707 0 0 0
118 2.52525 -13.67367 40.70070 0 0 0
119 2.73708 -13.88329 39.74724 0 0 0
120 2.40285 -14.76264 40.07719 0 0 0
121 2.74626 -15.33948 39.36692 0 0 0
122 2.78314 -16.25040 39.32929 0 0 0
123 3.01849 -17.23259 39.68593 0 0 0
124 3.12546 -18.06018 40.21704 0 0 0
125 3.50887 -18.96439 39.85447 0 0 0
126 3.53887 -19.72667 39.03922 0 0 0
127 4.34911 -20.22289 38.81735 0 0 0
128 4.93921 -20.39972 38.02205 0 0 0
129 5.68186 -20.62587 37.43556 0 0 0
130 6.38802 -21.31172 37.30611 0 0 0
131 6.58590 -22.29169 37.33851 0 0 0
132 6.54552 -23.15792 36.84877 0 0 0
133 6.96175 -24.08513 36.81144 0 0 0
134 7.53872 -24.62545 36.27821 0 0 0
135 7.01564 -25.42706 36.33202 0 0 0
136 6.55560 -26.23634 36.41635 0 0 0
137 6.73945 -27.08046 37.03653 0 0 0
138 6.93515 -27.15925 38.00371 0 0 0
139 7.11148 -27.82598 38.69695 0 0 0
140 7.04326 -28.55962 39.33868 0 0 0
141 7.86736 -29.00440 39.66751 0 0 0
142 8.44744 -29.74971 39.87495 0 0 0
143 8.71204 -30.41331 40.60742 0 0 0
144 8.86074 -31.50393 40.66944 0 0 0
145 9.52725 -32.27744 40.69926 0 0 0
146 9.52980 -32.87610 39.87447 0 0 0
147 10.29310 -33.19123 39.26937 0 0 0
148 11.02699 -33.80940 39.52282 0 0 0
149 11.77218 -33.69871 38.86558 0 0 0
150 12.68239 -33.32741 38.91717 0 0 0
151 13.57240 -33.21344 39.36293 0 0 0
152 -1.52310 -0.29819 44.49565 0 0 0
153 -2.43169 -0.54958 44.65763 0 0 0
154 -3.42528 -0.53411 44.66682 0 0 0
155 -4.09960 0.14254 44.73219 0 0 0
156 -4.89347 0.38769 45.28725 0 0 0
157 -5.76516 0.46756 45.79656 0 0 0
158 -6.43109 1.14711 45.97678 0 0 0
159 -7.03190 1.38524 46.66953 0 0 0
160 -7.90668 1.00133 46.81376 0 0 0
161 -8.90389 1.11929 46.93253 0 0 0
162 -9.82779 1.19237 46.85380 0 0 0
163 -10.56816 0.89844 47.47190 0 0 0
164 -11.43175 0.54816 47.14339 0 0 0
165 -12.31879 0.72994 46.89019 0 0 0
166 -13.02971 1.39868 46.95474 0 0 0
167 -13.93519 1.49511 47.30882 0 0 0
168 -14.77581 2.00622 47.44077 0 0 0
169 -15.68040 2.41008 47.78046 0 0 0
170 -15.92809 3.20649 48.42918 0 0 0
171 -16.91690 3.06378 48.30849 0 0 0
172 -16.44341 2.43746 48.99792 0 0 0
173 -17.02647 3.02074 49.50879 0 0 0
174 -17.97392 3.11360 49.39054 0 0 0
175 -18.72881 2.81925 49.91736 0 0 0
176 -19.45151 2.32570 49.64065 0 0 0
177 -19.92796 1.71787 50.31503 0 0 0
178 -20.21441 2.39305 51.08605 0 0 0
179 -20.90839 3.11116 51.35347 0 0 0
180 -21.41026 3.13360 52.23719 0 0 0
181 -21.62265 3.38118 53.15634 0 0 0
182 -22.26559 2.76052 53.63459 0 0 0
183 -23.04649 2.81295 54.24310 0 0 0
184 -23.93491 2.49397 53.91861 0 0 0
185 -24.36574 2.17337 54.72934 0 0 0
186 -25.14626 2.00097 55.35307 0 0 0
187 -26.14414 1.82760 55.25635 0 0 0
188 -27.10407 1.60403 54.97030 0 0 0
189 -28.05283 1.30286 54.76392 0 0 0
190 -27.97566 1.28841 55.73840 0 0 0
191 -28.95507 1.40406 55.87298 0 0 0
192 -29.01577 0.48640 56.12966 0 0 0
193 -29.39406 1.03340 56.83071 0 0 0
194 -30.35066 1.02205 56.72562 0 0 0
195 -30.07662 0.82260 57.62864 0 0 0
196 -30.63482 1.65498 58.03053 0 0 0
197 -30.23558 1.46199 58.88649 0 0 0
198 -30.96145 1.06148 59.44940 0 0 0
199 -30.95190 0.34015 58.84712 0 0 0
200 -30.13709 0.28470 59.29409 0 0 0
201 -30.30982 0.13619 60.30029 0 0 0
ITEM: TIMESTEP
4000
ITEM: NUMBER OF ATOMS
201
ITEM: BOX BOUNDS pp pp pp
-1.0000000000000000e+03 1.0000000000000000e+03
-1.0000000000000000e+03 1.0000000000000000e+03