ITEM: TIMESTEP
0
ITEM: NUMBER OF ATOMS
201
ITEM: BOX BOUNDS pp pp pp
-1.0000000000000000e+03 1.0000000000000000e+03
-1.0000000000000000e+03 1.0000000000000000e+03
-1.0000000000000000e+03 1.0000000000000000e+03
ITEM: ATOMS id x y z ix iy iz
1 0.00000 0.00000 0.00000 0 0 0
2 0.00000 0.00000 1.00000 0 0 0
3 0.00000 -0.50000 1.86603 0 0 0
4 0.00000 0.00000 2.73205 0 0 0
5 0.00000 -0.50000 3.59808 0 0 0
6 0.00000 0.00000 4.46410 0 0 0
7 0.00000 -0.50000 5.33013 0 0 0
8 0.00000 0.00000 6.19615 0 0 0
9 0.00000 -0.50000 7.06218 0 0 0
10 0.00000 0.00000 7.92820 0 0 0
11 0.00000 -0.50000 8.79423 0 0 0
12 0.00000 0.00000 9.66025 0 0 0
13 0.00000 -0.50000 10.52628 0 0 0
14 0.00000 0.00000 11.39230 0 0 0
15 0.00000 -0.50000 12.25833 0 0 0
16 0.00000 0.00000 13.12436 0 0 0
17 0.00000 -0.50000 13.99038 0 0 0
18 0.00000 0.00000 14.85641 0 0 0
19 0.00000 -0.50000 15.72243 0 0 0
20 0.00000 0.00000 16.58846 0 0 0
21 0.00000 -0.50000 17.45448 0 0 0
22 0.00000 0.00000 18.32051 0 0 0
23 0.00000 -0.50000 19.18653 0 0 0
24 0.00000 0.00000 20.05256 0 0 0
25 0.00000 -0.50000 20.91858 0 0 0
26 0.00000 0.00000 21.78461 0 0 0
27 0.00000 -0.50000 22.65064 0 0 0
28 0.00000 0.00000 23.51666 0 0 0
29 0.00000 -0.50000 24.38269 0 0 0
30 0.00000 0.00000 25.24871 0 0 0
31 0.00000 -0.50000 26.11474 0 0 0
32 0.00000 0.00000 26.98076 0 0 0
33 0.00000 -0.50000 27.84679 0 0 0
34 0.00000 0.00000 28.71281 0 0 0
35 0.00000 -0.50000 29.57884 0 0 0
36 0.00000 0.00000 30.44486 0 0 0
37 0.00000 -0.50000 31.31089 0 0 0
38 0.00000 0.00000 32.17691 0 0 0
39 0.00000 -0.50000 33.04294 0 0 0
40 0.00000 0.00000 33.90897 0 0 0
41 0.00000 -0.50000 34.77499 0 0 0
42 0.00000 0.00000 35.64102 0 0 0
43 0.00000 -0.50000 36.50704 0 0 0
44 0.00000 0.00000 37.37307 0 0 0
45 0.00000 -0.50000 38.23909 0 0 0
46 0.00000 0.00000 39.10512 0 0 0
47 0.00000 -0.50000 39.97114 0 0 0
48 0.00000 0.00000 40.83717 0 0 0
49 0.00000 -0.50000 41.70319 0 0 0
50 0.00000 0.00000 42.56922 0 0 0
51 0.00000 -0.50000 43.43524 0 0 0
52 0.69273 -0.11325 44.04398 0 0 0
53 1.38545 -0.08269 44.76453 0 0 0
54 2.07818 0.55661 45.09834 0 0 0
55 2.77091 0.58717 45.81889 0 0 0
56 3.46363 1.22647 46.15270 0 0 0
57 4.15636 1.25704 46.87325 0 0 0
58 4.84909 1.89633 47.20706 0 0 0
59 5.54181 1.92690 47.92761 0 0 0
60 6.23454 2.56620 48.26142 0 0 0
61 6.92727 2.59676 48.98197 0 0 0
62 7.61999 3.23606 49.31578 0 0 0
63 8.31272 3.26662 50.03633 0 0 0
64 9.00545 3.90592 50.37013 0 0 0
65 9.69817 3.93649 51.09069 0 0 0
66 10.39090 4.57578 51.42449 0 0 0
67 11.08363 4.60635 52.14505 0 0 0
68 11.77635 5.24565 52.47885 0 0 0
69 12.46908 5.27621 53.19940 0 0 0
70 13.16181 5.91551 53.53321 0 0 0
71 13.85453 5.94607 54.25376 0 0 0
72 14.54726 6.58537 54.58757 0 0 0
73 15.23999 6.61594 55.30812 0 0 0
74 15.93271 7.25524 55.64193 0 0 0
75 16.62544 7.28580 56.36248 0 0 0
76 17.31817 7.92510 56.69629 0 0 0
77 18.01089 7.95566 57.41684 0 0 0
78 18.70362 8.59496 57.75065 0 0 0
79 19.39635 8.62553 58.47120 0 0 0
80 20.08907 9.26482 58.80501 0 0 0
81 20.78180 9.29539 59.52556 0 0 0
82 21.47453 9.93469 59.85937 0 0 0
83 22.16725 9.96525 60.57992 0 0 0
84 22.85998 10.60455 60.91373 0 0 0
85 23.55271 10.63511 61.63428 0 0 0
86 24.24543 11.27441 61.96809 0 0 0
87 24.93816 11.30498 62.68864 0 0 0
88 25.63089 11.94428 63.02244 0 0 0
89 26.32361 11.97484 63.74300 0 0 0
90 27.01634 12.61414 64.07680 0 0 0
91 27.70907 12.64470 64.79736 0 0 0
92 28.40179 13.28400 65.13116 0 0 0
93 29.09452 13.31456 65.85171 0 0 0
94 29.78725 13.95386 66.18552 0 0 0
95 30.47997 13.98443 66.90607 0 0 0
96 31.17270 14.62373 67.23988 0 0 0
97 31.86543 14.65429 67.96043 0 0 0
98 32.55815 15.29359 68.29424 0 0 0
99 33.25088 15.32415 69.01479 0 0 0
100 33.94361 15.96345 69.34860 0 0 0
101 34.63633 15.99402 70.06915 0 0 0
102 0.20729 -1.46327 43.26455 0 0 0
103 0.41457 -2.21214 42.63508 0 0 0
104 0.62186 -3.13171 42.96889 0 0 0
105 0.82914 -3.88058 42.33942 0 0 0
106 1.03643 -4.80015 42.67323 0 0 0
107 1.24371 -5.54902 42.04376 0 0 0
108 1.45100 -6.46859 42.37757 0 0 0
109 1.65828 -7.21745 41.74810 0 0 0
110 1.86557 -8.13702 42.08191 0 0 0
111 2.07286 -8.88589 41.45244 0 0 0
112 2.28014 -9.80546 41.78625 0 0 0
113 2.48743 -10.55433 41.15678 0 0 0
114 2.69471 -11.47390 41.49059 0 0 0
115 2.90200 -12.22277 40.86113 0 0 0
116 3.10928 -13.14234 41.19493 0 0 0
117 3.31657 -13.89120 40.56547 0 0 0
118 3.52385 -14.81077 40.89927 0 0 0
119 3.73114 -15.55964 40.26981 0 0 0
120 3.93843 -16.47921 40.60361 0 0 0
121 4.14571 -17.22808 39.97415 0 0 0
122 4.35300 -18.14765 40.30795 0 0 0
123 4.56028 -18.89652 39.67849 0 0 0
124 4.76757 -19.81609 40.01230 0 0 0
125 4.97485 -20.56495 39.38283 0 0 0
126 5.18214 -21.48452 39.71664 0 0 0
127 5.38942 -22.23339 39.08717 0 0 0
128 5.59671 -23.15296 39.42098 0 0 0
129 5.80400 -23.90183 38.79151 0 0 0
130 6.01128 -24.82140 39.12532 0 0 0
131 6.21857 -25.57027 38.49585 0 0 0
132 6.42585 -26.48984 38.82966 0 0 0
133 6.63314 -27.23871 38.20019 0 0 0
134 6.84042 -28.15827 38.53400 0 0 0
135 7.04771 -28.90714 37.90453 0 0 0
136 7.25499 -29.82671 38.23834 0 0 0
137 7.46228 -30.57558 37.60887 0 0 0
138 7.66957 -31.49515 37.94268 0 0 0
139 7.87685 -32.24402 37.31322 0 0 0
140 8.08414 -33.16359 37.64702 0 0 0
141 8.29142 -33.91246 37.01756 0 0 0
142 8.49871 -34.83202 37.35136 0 0 0
143 8.70599 -35.58089 36.72190 0 0 0
144 8.91328 -36.50046 37.05570 0 0 0
145 9.12056 -37.24933 36.42624 0 0 0
146 9.32785 -38.16890 36.76004 0 0 0
147 9.53514 -38.91777 36.13058 0 0 0
148 9.74242 -39.83734 36.46439 0 0 0
149 9.94971 -40.58621 35.83492 0 0 0
150 10.15699 -41.50577 36.16873 0 0 0
151 10.36428 -42.25464 35.53926 0 0 0
152 -0.90001 -0.42418 43.86446 0 0 0
153 -1.80002 -0.57313 44.27409 0 0 0
154 -2.70004 -0.29286 44.60790 0 0 0
155 -3.60005 -0.44181 45.01752 0 0 0
156 -4.50006 -0.16154 45.35133 0 0 0
157 -5.40007 -0.31050 45.76095 0 0 0
158 -6.30009 -0.03023 46.09476 0 0 0
159 -7.20010 -0.17918 46.50438 0 0 0
160 -8.10011 0.10109 46.83819 0 0 0
161 -9.00012 -0.04786 47.24781 0 0 0
162 -9.90013 0.23241 47.58162 0 0 0
163 -10.80015 0.08346 47.99124 0 0 0
164 -11.70016 0.36373 48.32505 0 0 0
165 -12.60017 0.21478 48.73467 0 0 0
166 -13.50018 0.49505 49.06848 0 0 0
167 -14.40020 0.34610 49.47810 0 0 0
168 -15.30021 0.62637 49.81191 0 0 0
169 -16.20022 0.47742 50.22154 0 0 0
170 -17.10023 0.75769 50.55534 0 0 0
171 -18.00024 0.60874 50.96497 0 0 0
172 -18.90026 0.88901 51.29877 0 0 0
173 -19.80027 0.74006 51.70840 0 0 0
174 -20.70028 1.02033 52.04220 0 0 0
175 -21.60029 0.87138 52.45183 0 0 0
176 -22.50030 1.15165 52.78563 0 0 0
177 -23.40032 1.00270 53.19526 0 0 0
178 -24.30033 1.28297 53.52907 0 0 0
179 -25.20034 1.13402 53.93869 0 0 0
180 -26.10035 1.41428 54.27250 0 0 0
181 -27.00037 1.26533 54.68212 0 0 0
182 -27.90038 1.54560 55.01593 0 0 0
183 -28.80039 1.39665 55.42555 0 0 0
184 -29.70040 1.67692 55.75936 0 0 0
185 -30.60041 1.52797 56.16898 0 0 0
186 -31.50043 1.80824 56.50279 0 0 0
187 -32.40044 1.65929 56.91241 0 0 0
188 -33.30045 1.93956 57.24622 0 0 0
189 -34.20046 1.79061 57.65584 0 0 0
190 -35.10048 2.07088 57.98965 0 0 0
191 -36.00049 1.92193 58.39927 0 0 0
192 -36.90050 2.20220 58.73308 0 0 0
193 -37.80051 2.05325 59.14271 0 0 0
194 -38.70052 2.33352 59.47651 0 0 0
195 -39.60054 2.18457 59.88614 0 0 0
196 -40.50055 2.46484 60.21994 0 0 0
197 -41.40056 2.31589 60.62957 0 0 0
198 -42.30057 2.59616 60.96337 0 0 0
199 -43.20059 2.44721 61.37300 0 0 0
200 -44.10060 2.72748 61.70680 0 0 0
201 -45.00061 2.57853 62.11643 0 0 0
ITEM: TIMESTEP
1000
ITEM: NUMBER OF ATOMS
201
ITEM: BOX BOUNDS pp pp pp
-1.0000000000000000e+03 1.0000000000000000e+03
-1.0000000000000000e+03 1.0000000000000000e+03
-1.0000000000000000e+03 1.0000000000000000e+03
ITEM: ATOMS id x y z ix iy iz
1 0.10325 -0.89362 5.84781 0 0 0
2 -0.34028 -0.02062 6.07021 0 0 0
3 -0.62500 0.49980 6.87685 0 0 0
4 -1.25030 -0.26360 6.87771 0 0 0
5 -1.54435 -0.63034 7.77679 0 0 0
6 -1.37544 -0.54934 8.73117 0 0 0
7 -1.37071 -1.24040 9.48840 0 0 0
8 -1.69037 -1.00794 10.41770 0 0 0
9 -1.70397 -0.20202 10.95080 0 0 0
10 -1.88380 -0.40805 11.84300 0 0 0
11 -1.64355 -1.01545 12.62833 0 0 0
12 -1.34174 -1.54145 13.40573 0 0 0
13 -1.21377 -2.22197 14.07343 0 0 0
14 -0.58613 -2.92173 14.38858 0 0 0
15 -0.63263 -2.23703 15.08227 0 0 0
16 -1.23181 -1.73238 15.62061 0 0 0
17 -1.47926 -1.48885 16.52554 0 0 0
18 -1.27420 -0.82472 17.28291 0 0 0
19 -0.80896 -0.07576 17.72465 0 0 0
20 -0.57709 0.03127 18.63747 0 0 0
21 -0.47589 -0.37200 19.57142 0 0 0
22 -0.39073 -0.99255 20.35386 0 0 0
23 -0.34229 -1.64988 21.03802 0 0 0
24 -0.42631 -1.24091 21.92172 0 0 0
25 -0.69389 -0.65768 22.66388 0 0 0
26 -0.15821 -1.40006 23.01961 0 0 0
27 -0.26034 -1.14994 23.97663 0 0 0
28 -0.56561 -1.04625 24.85010 0 0 0
29 -0.66310 -0.56480 25.82044 0 0 0
30 -0.99472 0.23801 26.38031 0 0 0
31 -1.19851 0.47176 27.30008 0 0 0
32 -1.03705 0.47242 28.22715 0 0 0
33 -0.19207 1.01613 28.26883 0 0 0
34 0.06879 0.67757 29.10964 0 0 0
35 0.44614 0.30057 29.91258 0 0 0
36 0.82558 0.21354 30.81456 0 0 0
37 0.43801 0.31750 31.71650 0 0 0
38 0.73330 0.54519 32.58984 0 0 0
39 0.15380 -0.03958 33.12513 0 0 0
40 -0.13174 0.15817 34.02873 0 0 0
41 0.31024 0.24206 35.04108 0 0 0
42 0.32878 0.62874 35.95014 0 0 0
43 0.19980 0.36832 36.91135 0 0 0
44 0.05386 1.00513 37.77016 0 0 0
45 -0.60701 1.13516 38.50783 0 0 0
46 -1.14505 0.96527 39.31984 0 0 0
47 -0.94530 1.41970 40.24206 0 0 0
48 -0.87066 1.29518 41.18628 0 0 0
49 -0.45415 0.84105 42.13449 0 0 0
50 -0.71659 0.13319 42.82308 0 0 0
51 -1.12724 -0.66444 43.21277 0 0 0
52 -0.36095 -0.44345 43.89944 0 0 0
53 -0.03565 -0.22066 44.75369 0 0 0
54 0.80235 0.35474 44.80755 0 0 0
55 1.53310 0.29042 45.46242 0 0 0
56 2.22602 0.91630 45.86004 0 0 0
57 3.28359 1.26031 45.84633 0 0 0
58 4.11503 1.67962 46.06869 0 0 0
59 4.60097 2.13990 47.02202 0 0 0
60 4.99958 2.58183 47.82476 0 0 0
61 5.74475 2.96919 48.52047 0 0 0
62 6.69893 3.12010 48.68126 0 0 0
63 7.50650 3.58269 49.08174 0 0 0
64 8.32063 4.08209 49.20394 0 0 0
65 9.27807 3.92445 49.44936 0 0 0
66 10.12370 3.92617 49.93565 0 0 0
67 10.86868 4.53696 50.22745 0 0 0
68 11.49711 5.17189 50.70839 0 0 0
69 12.36208 5.37927 51.10394 0 0 0
70 12.77565 6.10772 51.55982 0 0 0
71 13.47024 6.23520 52.41129 0 0 0
72 14.42608 6.41717 52.54439 0 0 0
73 14.73539 6.36334 53.46390 0 0 0
74 15.64915 6.58027 53.96086 0 0 0
75 16.39561 7.13396 54.25603 0 0 0
76 17.28211 7.29765 53.87110 0 0 0
77 17.84820 7.19602 54.69938 0 0 0
78 18.61660 7.27234 55.34394 0 0 0
79 19.18742 7.89348 55.82368 0 0 0
80 19.73893 8.66741 56.02828 0 0 0
81 20.27191 9.24853 56.66954 0 0 0
82 20.89364 9.38305 57.45597 0 0 0
83 21.48842 10.07057 57.71867 0 0 0
84 22.23452 10.43812 58.25460 0 0 0
85 22.99770 10.83603 58.76145 0 0 0
86 23.36698 11.59494 59.34783 0 0 0
87 23.55446 11.72516 60.24878 0 0 0
88 24.22900 11.12689 60.74580 0 0 0
89 25.00017 10.68408 61.39208 0 0 0
90 25.64182 11.28354 61.93434 0 0 0
91 26.49344 11.22727 62.31794 0 0 0
92 27.32284 11.27808 62.76865 0 0 0
93 28.05492 11.94057 62.58349 0 0 0
94 28.83760 12.26899 63.00911 0 0 0
95 29.32107 12.30142 63.80134 0 0 0
96 29.80498 12.84010 64.45310 0 0 0
97 29.20139 13.55165 64.53425 0 0 0
98 29.10672 14.39352 64.95575 0 0 0
99 29.40592 14.10508 65.97078 0 0 0
100 29.90400 14.73430 66.60985 0 0 0
101 30.13138 15.49924 67.17528 0 0 0
102 -1.56879 -1.53221 43.02262 0 0 0
103 -1.65553 -2.46401 43.40925 0 0 0
104 -1.21664 -3.32720 43.02553 0 0 0
105 -0.70595 -4.13472 42.92185 0 0 0
106 -0.05675 -4.82482 42.55197 0 0 0
107 -0.00328 -5.65640 42.12667 0 0 0
108 -0.19572 -6.48134 41.58850 0 0 0
109 0.67778 -7.08238 41.73106 0 0 0
110 1.22233 -8.00564 41.87365 0 0 0
111 1.59931 -8.89830 41.84813 0 0 0
112 2.36630 -9.44384 41.62474 0 0 0
113 3.12558 -10.05994 41.67946 0 0 0
114 3.29990 -10.98574 41.77987 0 0 0
115 3.89712 -11.54895 41.18410 0 0 0
116 4.14873 -12.47169 41.09714 0 0 0
117 3.79272 -13.42966 40.75521 0 0 0
118 4.12795 -14.28466 40.07676 0 0 0
119 4.86751 -14.90278 40.13951 0 0 0
120 5.06664 -15.84926 39.95545 0 0 0
121 4.60713 -16.70377 40.13427 0 0 0
122 4.85979 -17.63148 39.94959 0 0 0
123 4.84510 -18.60710 40.03097 0 0 0
124 5.09551 -19.55108 40.12812 0 0 0
125 5.28778 -20.47672 40.38501 0 0 0
126 5.57784 -21.33718 40.28989 0 0 0
127 5.66032 -22.13810 39.77094 0 0 0
128 5.24498 -22.91547 39.25940 0 0 0
129 5.23407 -23.83231 38.75611 0 0 0
130 5.73641 -24.45743 38.23158 0 0 0
131 6.08519 -25.33014 38.25204 0 0 0
132 6.49648 -26.13968 38.62957 0 0 0
133 6.46197 -27.15444 38.60555 0 0 0
134 6.60915 -28.07008 38.36911 0 0 0
135 6.75259 -28.94318 37.98723 0 0 0
136 7.16103 -29.83978 37.55162 0 0 0
137 7.53713 -30.75941 37.33722 0 0 0
138 7.85531 -31.68153 37.31409 0 0 0
139 8.26831 -32.47440 37.65285 0 0 0
140 8.65415 -33.18884 37.09818 0 0 0
141 8.84219 -33.85681 36.42724 0 0 0
142 9.25083 -34.67799 36.54995 0 0 0
143 9.77117 -35.44932 36.90080 0 0 0
144 10.10827 -36.37846 36.87340 0 0 0
145 9.95707 -37.32126 36.61324 0 0 0
146 10.17572 -38.24289 36.38118 0 0 0
147 10.98346 -38.78947 36.32439 0 0 0
148 11.69488 -39.39183 35.83156 0 0 0
149 12.10621 -40.15736 35.30104 0 0 0
150 12.82069 -39.65670 35.72249 0 0 0
151 13.22524 -38.85014 35.41210 0 0 0
152 -1.82705 -0.61526 43.82035 0 0 0
153 -2.69495 -0.57024 44.28513 0 0 0
154 -3.38882 -0.35244 44.91265 0 0 0
155 -4.06135 0.37626 45.27403 0 0 0
156 -4.81386 0.91920 45.33119 0 0 0
157 -5.63637 0.61200 45.79028 0 0 0
158 -6.58536 0.83591 45.99679 0 0 0
159 -7.42582 0.73702 46.45550 0 0 0
160 -7.96815 0.99522 47.16168 0 0 0
161 -8.77092 1.36054 47.54306 0 0 0
162 -9.69190 1.10525 47.69026 0 0 0
163 -10.45048 1.06510 48.27943 0 0 0
164 -11.12174 1.42231 48.90557 0 0 0
165 -11.89525 1.08959 49.36584 0 0 0
166 -12.20357 1.70181 50.09177 0 0 0
167 -13.00501 2.29592 50.26482 0 0 0
168 -13.81604 2.21198 50.75231 0 0 0
169 -14.70052 2.73217 50.87009 0 0 0
170 -15.46681 2.41161 51.51520 0 0 0
171 -16.31587 1.92647 51.84865 0 0 0
172 -17.14042 2.20751 52.25904 0 0 0
173 -18.05786 1.99909 52.60061 0 0 0
174 -19.08971 1.62547 53.09964 0 0 0
175 -20.02202 1.50556 53.05110 0 0 0
176 -20.70953 1.90103 53.64095 0 0 0
177 -21.51111 1.37228 53.96804 0 0 0
178 -22.21567 0.94556 54.54139 0 0 0
179 -23.15972 1.34587 54.44686 0 0 0
180 -24.14197 1.33479 54.53656 0 0 0
181 -25.05875 1.20739 54.85403 0 0 0
182 -25.53991 0.71061 55.53636 0 0 0
183 -26.44179 0.90892 55.95218 0 0 0
184 -27.26589 0.41608 56.27902 0 0 0
185 -28.16539 0.83138 56.24736 0 0 0
186 -28.14899 1.33692 57.08273 0 0 0
187 -28.93053 1.56776 57.62861 0 0 0
188 -29.40971 2.06384 58.38605 0 0 0
189 -30.15168 2.59744 58.79395 0 0 0
190 -30.86875 2.70199 58.16372 0 0 0
191 -31.82981 2.63983 58.56738 0 0 0
192 -32.70412 2.28153 58.43761 0 0 0
193 -33.59578 2.74290 58.26564 0 0 0
194 -33.84637 2.79215 59.20821 0 0 0
195 -34.48307 2.02591 59.11486 0 0 0
196 -35.00163 2.76519 59.43604 0 0 0
197 -35.97216 2.74002 59.48732 0 0 0
198 -36.92196 2.44126 59.55066 0 0 0
199 -37.66084 2.51155 60.12117 0 0 0
200 -38.52512 1.97545 60.41843 0 0 0
201 -38.62218 1.45281 61.13673 0 0 0
ITEM: TIMESTEP
2000
ITEM: NUMBER OF ATOMS
201
ITEM: BOX BOUNDS pp pp pp
-1.0000000000000000e+03 1.0000000000000000e+03
-1.0000000000000000e+03 1.0000000000000000e+03
-1.0000000000000000e+03 1.0000000000000000e+03
ITEM: ATOMS id x y z ix iy iz
1 -0.56555 0.09101 9.46662 0 0 0
2 0.22734 -0.27340 10.04740 0 0 0
3 0.83604 -1.02553 9.95808 0 0 0
4 0.56838 -1.41205 10.87862 0 0 0
5 -0.00198 -1.08637 11.60427 0 0 0
6 -0.51555 -1.81231 11.90603 0 0 0
7 -1.15177 -2.21492 11.26462 0 0 0
8 -1.59303 -2.06310 12.11130 0 0 0
9 -1.65670 -1.63942 12.95965 0 0 0
10 -2.22617 -1.93283 13.68778 0 0 0
11 -2.52088 -1.82051 14.62750 0 0 0
12 -2.18982 -2.54954 15.21084 0 0 0
13 -2.84294 -2.99181 15.80623 0 0 0
14 -3.12133 -2.83620 16.64673 0 0 0
15 -3.28327 -2.97342 17.59938 0 0 0
16 -2.83943 -2.38988 18.28743 0 0 0
17 -2.36925 -2.29598 19.19300 0 0 0
18 -1.42906 -2.27597 19.44071 0 0 0
19 -1.30457 -1.46217 19.93696 0 0 0
20 -0.40339 -1.66000 20.20868 0 0 0
21 0.15205 -1.44035 21.04788 0 0 0
22 0.60944 -1.91927 21.72561 0 0 0
23 0.73497 -1.40816 22.60545 0 0 0
24 1.13153 -1.57737 23.46440 0 0 0
25 0.72293 -2.40546 23.84089 0 0 0
26 0.27630 -2.42151 24.72424 0 0 0
27 0.46413 -2.07695 25.62290 0 0 0
28 -0.02436 -2.32926 26.39819 0 0 0
29 0.60817 -1.57949 26.68072 0 0 0
30 0.47848 -1.57140 27.63073 0 0 0
31 0.48132 -1.87543 28.56385 0 0 0
32 -0.27607 -1.76540 29.36423 0 0 0
33 -0.08349 -1.85813 30.31039 0 0 0
34 -0.06331 -1.29230 31.10153 0 0 0
35 -0.19007 -0.71402 31.90046 0 0 0
36 0.36833 -0.30252 32.62077 0 0 0
37 -0.30453 -0.40512 33.46301 0 0 0
38 -0.91273 0.09042 33.98291 0 0 0
39 -1.18043 0.32566 34.87709 0 0 0
40 -1.77656 0.82992 35.48020 0 0 0
41 -1.92125 0.95661 36.44451 0 0 0
42 -1.95336 0.91628 37.37886 0 0 0
43 -2.24665 0.72186 38.27990 0 0 0
44 -2.60114 0.49939 39.13259 0 0 0
45 -2.46586 0.11996 39.98627 0 0 0
46 -1.82964 0.85614 40.29201 0 0 0
47 -1.56291 0.09881 40.81879 0 0 0
48 -1.37247 0.00026 41.81906 0 0 0
49 -0.84802 -0.17347 42.60894 0 0 0
50 -0.39568 -0.62055 43.32333 0 0 0
51 0.06755 -0.63135 44.19254 0 0 0
52 0.90302 -0.18485 44.58199 0 0 0
53 1.73545 0.41850 44.82112 0 0 0
54 2.71563 0.57167 45.14733 0 0 0
55 3.63801 0.81928 44.82360 0 0 0
56 4.11661 1.11126 45.63407 0 0 0
57 4.94987 0.95351 46.33399 0 0 0
58 5.67065 1.26194 46.97624 0 0 0
59 6.29250 1.44332 47.68554 0 0 0
60 7.17359 0.98659 47.56968 0 0 0
61 7.79048 1.73776 47.42630 0 0 0
62 8.43434 2.46829 47.12494 0 0 0
63 8.72444 3.38000 47.26416 0 0 0
64 9.04144 3.86413 48.03717 0 0 0
65 9.57671 4.31104 48.73103 0 0 0
66 10.12434 4.92602 49.18384 0 0 0
67 10.63567 5.39849 49.83312 0 0 0
68 11.43896 5.02468 50.24290 0 0 0
69 12.34209 5.09261 50.78066 0 0 0
70 12.67544 5.85695 51.34459 0 0 0
71 13.35177 6.17079 51.97042 0 0 0
72 14.03638 6.60094 52.54985 0 0 0
73 14.58240 7.42958 52.89857 0 0 0
74 15.58534 7.55248 52.93621 0 0 0
75 16.27330 6.94576 53.47096 0 0 0
76 16.82472 6.61693 54.29448 0 0 0
77 17.33143 5.99195 54.87116 0 0 0
78 17.63169 6.74941 55.38528 0 0 0
79 17.97720 7.15649 56.26844 0 0 0
80 18.57305 7.09169 57.13306 0 0 0
81 19.31261 7.80936 57.01123 0 0 0
82 19.93196 8.25192 57.64406 0 0 0
83 20.70715 8.75637 57.50683 0 0 0
84 21.42296 8.23292 57.13407 0 0 0
85 22.34016 8.55099 57.21143 0 0 0
86 22.72130 9.15794 57.85639 0 0 0
87 23.27072 8.75531 58.57547 0 0 0
88 23.95622 9.25171 59.08831 0 0 0
89 24.79606 9.23294 59.71915 0 0 0
90 25.74091 9.39910 59.88074 0 0 0
91 25.90907 9.32463 60.78682 0 0 0
92 26.56400 9.67012 61.42079 0 0 0
93 26.41922 10.55394 61.91135 0 0 0
94 26.36081 11.22426 62.58851 0 0 0
95 26.61852 12.13263 62.94380 0 0 0
96 27.11153 12.57106 63.64858 0 0 0
97 27.14181 12.62441 64.59395 0 0 0
98 28.09647 12.26990 64.81448 0 0 0
99 28.94603 12.36220 65.27964 0 0 0
100 28.53731 13.18423 65.58807 0 0 0
101 27.73808 13.66231 65.44977 0 0 0
102 0.24164 -1.61682 44.03612 0 0 0
103 0.87918 -2.19870 43.49258 0 0 0
104 0.86630 -3.17136 43.58469 0 0 0
105 0.52024 -3.98296 44.09455 0 0 0
106 0.41364 -4.91396 43.72687 0 0 0
107 0.73791 -5.72396 43.28243 0 0 0
108 1.12482 -6.52130 42.84351 0 0 0
109 0.83826 -7.10971 42.04667 0 0 0
110 1.07025 -7.79589 41.36754 0 0 0
111 1.34825 -8.44994 40.70856 0 0 0
112 2.04637 -9.11779 40.38408 0 0 0
113 2.54911 -9.89916 40.60912 0 0 0
114 2.84487 -10.78996 40.99522 0 0 0
115 3.01390 -11.67591 40.54748 0 0 0
116 3.44958 -12.29056 39.99095 0 0 0
117 3.39498 -13.26254 39.54590 0 0 0
118 3.41318 -14.07501 39.08733 0 0 0
119 3.58753 -14.99940 39.07067 0 0 0
120 3.30497 -15.79569 39.59119 0 0 0
121 3.46963 -16.64179 39.13436 0 0 0
122 4.05710 -17.45372 39.02938 0 0 0
123 3.99410 -18.42795 38.87391 0 0 0
124 4.34537 -19.39325 38.84603 0 0 0
125 4.57118 -20.24587 39.44882 0 0 0
126 4.79045 -21.11984 39.15392 0 0 0
127 4.29667 -22.02787 39.01079 0 0 0
128 4.22014 -22.84618 39.47842 0 0 0
129 4.71515 -23.61260 39.80547 0 0 0
130 4.91763 -24.58677 39.60506 0 0 0
131 4.41440 -25.45991 39.42738 0 0 0
132 4.65213 -26.29749 38.97877 0 0 0
133 5.31796 -26.81319 38.51316 0 0 0
134 6.16003 -27.03617 38.21409 0 0 0
135 6.69266 -27.87096 38.12486 0 0 0
136 7.38209 -28.43580 37.77924 0 0 0
137 8.38606 -28.53107 37.51488 0 0 0
138 8.54556 -29.18784 36.74807 0 0 0
139 8.58999 -29.94741 36.15867 0 0 0
140 8.40046 -30.76168 36.78842 0 0 0
141 8.72968 -31.56796 36.41277 0 0 0
142 8.40865 -32.06460 35.54229 0 0 0
143 8.14094 -32.87527 35.13113 0 0 0
144 8.56315 -33.09294 34.33442 0 0 0
145 8.91738 -33.91771 34.77151 0 0 0
146 9.39809 -34.84504 34.68561 0 0 0
147 10.17259 -35.41031 34.87809 0 0 0
148 10.63386 -36.17737 34.53529 0 0 0
149 10.84611 -36.95154 34.08197 0 0 0
150 10.84205 -37.98391 33.91695 0 0 0
151 11.23847 -38.29414 33.09039 0 0 0
152 -0.73699 -0.36090 44.80636 0 0 0
153 -1.61487 -0.77395 45.08451 0 0 0
154 -2.58215 -0.98949 44.97004 0 0 0
155 -3.25288 -0.57686 45.63317 0 0 0
156 -3.83307 0.04590 46.01089 0 0 0
157 -4.31703 0.48393 46.71518 0 0 0
158 -4.99476 0.63509 47.47459 0 0 0
159 -5.41967 1.47519 47.97163 0 0 0
160 -6.18083 2.01482 48.32042 0 0 0
161 -7.02209 2.22474 48.94719 0 0 0
162 -8.03361 2.40604 49.02378 0 0 0
163 -8.92002 2.07349 49.08714 0 0 0
164 -9.94481 2.09487 49.20168 0 0 0
165 -10.20503 1.51317 49.95464 0 0 0
166 -10.93765 1.30607 50.58451 0 0 0
167 -11.80050 1.71920 50.75427 0 0 0
168 -12.54874 2.05720 51.23005 0 0 0
169 -13.36212 2.39593 51.64220 0 0 0
170 -14.35786 2.39197 51.54959 0 0 0
171 -15.27201 2.14496 51.87012 0 0 0
172 -16.11760 1.67009 51.56244 0 0 0
173 -17.17733 1.79691 51.74522 0 0 0
174 -18.02148 1.56259 52.24022 0 0 0
175 -19.02961 1.27755 52.02189 0 0 0
176 -19.83125 1.57852 52.51089 0 0 0
177 -20.46743 1.85378 53.17046 0 0 0
178 -21.23116 2.22308 53.58253 0 0 0
179 -21.95582 2.14193 54.26965 0 0 0
180 -22.59182 1.68396 54.85717 0 0 0
181 -22.74641 1.82867 55.76606 0 0 0
182 -23.70376 2.10349 55.57898 0 0 0
183 -24.60262 1.99623 55.61395 0 0 0
184 -25.48886 2.27843 55.95755 0 0 0
185 -26.52005 2.19190 55.95737 0 0 0
186 -27.36778 1.78953 56.18369 0 0 0
187 -28.05865 1.49384 56.74327 0 0 0
188 -28.80495 2.09795 56.76030 0 0 0
189 -29.70728 2.06322 56.42521 0 0 0
190 -30.56230 2.28704 56.08905 0 0 0
191 -31.26954 2.76252 56.69058 0 0 0
192 -31.60507 1.94464 57.05223 0 0 0
193 -32.35026 1.37704 56.96728 0 0 0
194 -33.07875 0.78970 57.32172 0 0 0
195 -33.76087 0.34767 57.84158 0 0 0
196 -34.57009 0.78408 57.59004 0 0 0
197 -34.92616 1.50483 58.12606 0 0 0
198 -35.79146 1.63671 57.56830 0 0 0
199 -36.07204 0.92572 58.20019 0 0 0
200 -36.67068 0.57566 57.55766 0 0 0
201 -36.26484 0.42823 56.60031 0 0 0
ITEM: TIMESTEP
3000
ITEM: NUMBER OF ATOMS
201
ITEM: BOX BOUNDS pp pp pp
-1.0000000000000000e+03 1.0000000000000000e+03
-1.0000000000000000e+03 1.0000000000000000e+03
-1.0000000000000000e+03 1.0000000000000000e+03
ITEM: ATOMS id x y z ix iy iz
1 0.65224 -3.26078 9.51856 0 0 0
2 0.39756 -3.86725 10.13625 0 0 0
3 -0.10554 -2.98089 10.24129 0 0 0
4 -0.15545 -2.54404 11.10752 0 0 0
5 -0.53506 -2.41556 12.12223 0 0 0
6 -1.31825 -2.13722 12.64740 0 0 0
7 -2.29634 -2.12250 12.75536 0 0 0
8 -2.87512 -2.83397 13.17401 0 0 0
9 -2.95965 -2.08272 13.81419 0 0 0
10 -2.49272 -1.62705 14.52708 0 0 0
11 -2.75825 -1.24827 15.41344 0 0 0
12 -2.92947 -1.37341 16.33749 0 0 0
13 -3.53104 -2.03103 16.71384 0 0 0
14 -3.45739 -2.25845 17.71419 0 0 0
15 -2.84546 -1.75394 18.33053 0 0 0
16 -2.18097 -1.37528 18.98150 0 0 0
17 -1.85554 -1.25643 19.92538 0 0 0
18 -2.42802 -1.91338 20.24453 0 0 0
19 -2.04062 -2.67087 20.83095 0 0 0
20 -1.69740 -1.82025 21.21602 0 0 0
21 -1.70580 -2.34055 21.99143 0 0 0
22 -1.88843 -2.16382 22.91775 0 0 0
23 -2.19694 -1.66766 23.69872 0 0 0
24 -2.07429 -2.08874 24.57509 0 0 0
25 -1.47115 -2.04743 25.39952 0 0 0
26 -0.60068 -2.24880 25.86653 0 0 0
27 -0.01345 -1.84405 26.56684 0 0 0
28 0.63761 -2.07746 27.25306 0 0 0
29 0.01619 -1.74127 27.93338 0 0 0
30 -0.91764 -1.78674 28.06843 0 0 0
31 -1.50760 -1.98824 28.83506 0 0 0
32 -1.30336 -2.50866 29.62278 0 0 0
33 -2.12873 -2.34032 30.19404 0 0 0
34 -2.36830 -1.75352 30.82777 0 0 0
35 -2.06773 -1.47557 31.78589 0 0 0
36 -2.09272 -1.58822 32.78723 0 0 0
37 -2.16064 -0.61046 33.04178 0 0 0
38 -2.47289 -0.18760 33.76547 0 0 0
39 -2.10967 0.19156 34.64673 0 0 0
40 -1.60106 0.60753 35.37453 0 0 0
41 -1.68937 1.30167 36.08858 0 0 0
42 -2.28231 1.89934 36.58188 0 0 0
43 -2.97512 2.03426 37.26113 0 0 0
44 -2.86173 1.54871 38.09440 0 0 0
45 -2.56911 0.70024 38.42436 0 0 0
46 -1.67000 0.59012 38.87795 0 0 0
47 -1.20649 0.13476 39.75838 0 0 0
48 -1.16911 -0.18666 40.75527 0 0 0
49 -0.42271 0.26177 41.16546 0 0 0
50 0.08671 0.12256 41.93618 0 0 0
51 -0.38125 -0.31394 42.64560 0 0 0
52 -0.11241 0.26326 43.42463 0 0 0
53 0.22099 1.01337 43.91876 0 0 0
54 1.14254 1.13661 44.25262 0 0 0
55 1.74119 1.05376 45.09264 0 0 0
56 2.54290 0.40446 45.47178 0 0 0
57 2.77593 1.28292 45.73845 0 0 0
58 3.07320 2.10956 46.21800 0 0 0
59 3.83495 2.49792 46.73655 0 0 0
60 4.10746 2.63029 47.66132 0 0 0
61 5.03349 3.00119 47.51409 0 0 0
62 5.82668 3.45710 47.18349 0 0 0
63 6.28787 4.12206 47.57068 0 0 0
64 6.72798 4.38151 48.37595 0 0 0
65 7.30420 5.04325 48.88074 0 0 0
66 8.22221 5.41121 48.94879 0 0 0
67 8.52732 5.44491 49.93011 0 0 0
68 9.32809 5.55577 50.39831 0 0 0
69 10.10549 5.92883 50.74191 0 0 0
70 10.61914 5.96939 51.57241 0 0 0
71 11.15977 6.42836 52.30704 0 0 0
72 12.06975 6.59074 52.62136 0 0 0
73 12.78800 6.34550 53.26227 0 0 0
74 13.68216 6.71389 53.34843 0 0 0
75 14.59254 6.30594 53.59942 0 0 0
76 14.99801 7.02942 53.06109 0 0 0
77 15.46844 7.30642 53.91392 0 0 0
78 15.15703 7.90573 54.59938 0 0 0
79 16.07594 7.85139 55.04285 0 0 0
80 17.01469 7.50549 55.29368 0 0 0
81 17.90227 7.75287 55.65854 0 0 0
82 18.31561 8.58586 56.09186 0 0 0
83 17.80363 9.36649 56.12072 0 0 0
84 18.66868 9.56288 56.57566 0 0 0
85 19.07424 10.22343 57.23744 0 0 0
86 19.90671 10.64410 57.33371 0 0 0
87 20.65123 10.85048 57.93375 0 0 0
88 21.35727 11.17430 58.48887 0 0 0
89 21.43488 10.76321 59.41125 0 0 0
90 22.47732 10.98192 59.18295 0 0 0
91 23.50383 11.06012 59.44129 0 0 0
92 23.86097 10.63609 60.25659 0 0 0
93 24.68967 11.15417 60.04911 0 0 0
94 25.61601 11.48193 59.86724 0 0 0
95 26.36724 11.00540 60.09233 0 0 0
96 27.04043 10.61082 60.62776 0 0 0
97 27.97797 10.75322 60.69793 0 0 0
98 28.91016 10.55805 60.92778 0 0 0
99 29.31051 10.13508 60.19947 0 0 0
100 29.81017 9.38664 60.58537 0 0 0
101 29.57785 9.09132 61.52215 0 0 0
102 -0.03207 -1.25219 42.61903 0 0 0
103 0.46960 -2.04415 42.86908 0 0 0
104 0.04906 -2.90481 42.66851 0 0 0
105 -0.16850 -3.73503 42.19016 0 0 0
106 0.13748 -4.39873 41.45249 0 0 0
107 0.45618 -5.31834 41.11874 0 0 0
108 0.55700 -6.29779 41.16944 0 0 0
109 0.95807 -7.20697 41.18331 0 0 0
110 1.56016 -7.97693 41.32732 0 0 0
111 2.19355 -8.58540 40.82601 0 0 0
112 2.68462 -9.46123 41.10855 0 0 0
113 3.04677 -10.22369 40.52757 0 0 0
114 3.56811 -11.00080 40.63089 0 0 0
115 3.90990 -11.93236 40.44999 0 0 0
116 4.34091 -12.37854 39.62755 0 0 0
117 4.45918 -13.32247 39.35140 0 0 0
118 4.11623 -14.14508 38.95750 0 0 0
119 4.56218 -15.00776 38.80321 0 0 0
120 4.96193 -15.80663 39.00228 0 0 0
121 4.96803 -16.75375 39.02204 0 0 0
122 5.63761 -17.47810 39.27082 0 0 0
123 6.18069 -18.24821 39.23495 0 0 0
124 5.54878 -18.96128 39.05879 0 0 0
125 5.75662 -19.81213 39.47786 0 0 0
126 6.39061 -20.40018 38.95706 0 0 0
127 6.88221 -21.22123 39.14167 0 0 0
128 7.23771 -21.99923 38.74005 0 0 0
129 7.95303 -22.44270 39.38016 0 0 0
130 7.66005 -23.48206 39.21387 0 0 0
131 7.15011 -24.32920 39.27376 0 0 0
132 6.58534 -25.12765 39.05786 0 0 0
133 6.78102 -25.75942 38.38531 0 0 0
134 6.77925 -26.37306 37.65122 0 0 0
135 7.06545 -27.18459 37.12981 0 0 0
136 7.51823 -27.93151 36.52893 0 0 0
137 7.27317 -28.79439 36.02542 0 0 0
138 6.87186 -29.68299 35.93657 0 0 0
139 6.71817 -30.61995 35.63708 0 0 0
140 6.90657 -31.63659 35.40741 0 0 0
141 7.34924 -32.40334 34.92165 0 0 0
142 7.05529 -32.84987 34.07744 0 0 0
143 7.31497 -33.79571 33.97795 0 0 0
144 8.06033 -34.38391 34.07242 0 0 0
145 8.82145 -34.82057 33.57502 0 0 0
146 9.74569 -34.82461 33.48455 0 0 0
147 10.61511 -34.71808 32.87640 0 0 0
148 11.45186 -35.10150 32.46615 0 0 0
149 12.29995 -35.00808 32.96900 0 0 0
150 13.09680 -35.34834 33.38567 0 0 0
151 13.12430 -35.76620 32.54441 0 0 0
152 -1.15278 0.12778 43.09692 0 0 0
153 -1.79927 0.60995 43.66999 0 0 0
154 -2.37356 1.29604 43.96836 0 0 0
155 -2.95920 1.16870 44.75395 0 0 0
156 -3.42174 2.05482 44.85570 0 0 0
157 -4.15750 1.72057 45.48800 0 0 0
158 -5.07740 1.72997 46.21908 0 0 0
159 -5.13894 2.68449 46.13789 0 0 0
160 -6.01045 3.09698 45.94469 0 0 0
161 -6.69792 2.87745 46.73331 0 0 0
162 -7.45940 2.47260 47.22210 0 0 0
163 -7.81603 2.15517 48.07530 0 0 0
164 -8.46681 2.57301 48.64948 0 0 0
165 -9.11480 2.53482 49.38613 0 0 0
166 -10.06090 2.66821 49.75323 0 0 0
167 -11.04130 2.35570 49.96847 0 0 0
168 -12.02657 2.27037 49.98154 0 0 0
169 -12.51362 3.10150 49.90125 0 0 0
170 -13.45646 3.01161 49.63569 0 0 0
171 -14.10897 3.40664 50.30049 0 0 0
172 -14.77350 2.86729 50.81886 0 0 0
173 -15.55517 2.85481 50.16119 0 0 0
174 -15.97781 2.72496 51.03485 0 0 0
175 -16.49529 3.48425 51.25086 0 0 0
176 -17.41677 3.76009 51.33669 0 0 0
177 -17.47713 3.44691 52.30009 0 0 0
178 -18.51173 3.41971 52.34558 0 0 0
179 -19.49548 3.30349 52.36652 0 0 0
180 -20.16650 2.62737 52.21606 0 0 0
181 -21.05187 2.27778 52.52276 0 0 0
182 -21.79161 1.88429 53.15325 0 0 0
183 -22.07085 1.90481 54.13850 0 0 0
184 -22.26202 1.11837 54.66550 0 0 0
185 -22.96014 1.02044 54.02253 0 0 0
186 -23.83883 1.11570 54.49252 0 0 0
187 -24.36768 1.89650 54.54772 0 0 0
188 -25.32570 1.51253 54.56943 0 0 0
189 -25.76383 1.45249 55.44141 0 0 0
190 -26.39554 0.70349 55.83690 0 0 0
191 -27.10075 1.27911 56.16523 0 0 0
192 -27.98661 1.44181 56.53424 0 0 0
193 -28.86330 1.54702 56.87115 0 0 0
194 -29.79275 1.18638 56.97364 0 0 0
195 -30.01393 1.64114 56.03492 0 0 0
196 -30.64204 0.95764 55.79289 0 0 0
197 -31.33466 0.33005 55.71057 0 0 0
198 -32.27319 0.42459 55.64153 0 0 0
199 -32.93295 0.93259 56.28234 0 0 0
200 -32.19382 1.58026 56.45527 0 0 0
201 -31.80787 2.05045 57.20204 0 0 0
ITEM: TIMESTEP
4000
ITEM: NUMBER OF ATOMS
201
ITEM: BOX BOUNDS pp pp pp
-1.0000000000000000e+03 1.0000000000000000e+03