ITEM: TIMESTEP
0
ITEM: NUMBER OF ATOMS
301
ITEM: BOX BOUNDS pp pp pp
-1.0000000000000000e+03 1.0000000000000000e+03
-1.0000000000000000e+03 1.0000000000000000e+03
-1.0000000000000000e+03 1.0000000000000000e+03
ITEM: ATOMS id x y z ix iy iz
1 0.00000 0.00000 0.00000 0 0 0
2 0.00000 0.00000 1.00000 0 0 0
3 0.00000 -0.50000 1.86603 0 0 0
4 0.00000 0.00000 2.73205 0 0 0
5 0.00000 -0.50000 3.59808 0 0 0
6 0.00000 0.00000 4.46410 0 0 0
7 0.00000 -0.50000 5.33013 0 0 0
8 0.00000 0.00000 6.19615 0 0 0
9 0.00000 -0.50000 7.06218 0 0 0
10 0.00000 0.00000 7.92820 0 0 0
11 0.00000 -0.50000 8.79423 0 0 0
12 0.00000 0.00000 9.66025 0 0 0
13 0.00000 -0.50000 10.52628 0 0 0
14 0.00000 0.00000 11.39230 0 0 0
15 0.00000 -0.50000 12.25833 0 0 0
16 0.00000 0.00000 13.12436 0 0 0
17 0.00000 -0.50000 13.99038 0 0 0
18 0.00000 0.00000 14.85641 0 0 0
19 0.00000 -0.50000 15.72243 0 0 0
20 0.00000 0.00000 16.58846 0 0 0
21 0.00000 -0.50000 17.45448 0 0 0
22 0.00000 0.00000 18.32051 0 0 0
23 0.00000 -0.50000 19.18653 0 0 0
24 0.00000 0.00000 20.05256 0 0 0
25 0.00000 -0.50000 20.91858 0 0 0
26 0.00000 0.00000 21.78461 0 0 0
27 0.00000 -0.50000 22.65064 0 0 0
28 0.00000 0.00000 23.51666 0 0 0
29 0.00000 -0.50000 24.38269 0 0 0
30 0.00000 0.00000 25.24871 0 0 0
31 0.00000 -0.50000 26.11474 0 0 0
32 0.00000 0.00000 26.98076 0 0 0
33 0.00000 -0.50000 27.84679 0 0 0
34 0.00000 0.00000 28.71281 0 0 0
35 0.00000 -0.50000 29.57884 0 0 0
36 0.00000 0.00000 30.44486 0 0 0
37 0.00000 -0.50000 31.31089 0 0 0
38 0.00000 0.00000 32.17691 0 0 0
39 0.00000 -0.50000 33.04294 0 0 0
40 0.00000 0.00000 33.90897 0 0 0
41 0.00000 -0.50000 34.77499 0 0 0
42 0.00000 0.00000 35.64102 0 0 0
43 0.00000 -0.50000 36.50704 0 0 0
44 0.00000 0.00000 37.37307 0 0 0
45 0.00000 -0.50000 38.23909 0 0 0
46 0.00000 0.00000 39.10512 0 0 0
47 0.00000 -0.50000 39.97114 0 0 0
48 0.00000 0.00000 40.83717 0 0 0
49 0.00000 -0.50000 41.70319 0 0 0
50 0.00000 0.00000 42.56922 0 0 0
51 0.00000 -0.50000 43.43524 0 0 0
52 0.00000 0.00000 44.30127 0 0 0
53 0.00000 -0.50000 45.16730 0 0 0
54 0.00000 0.00000 46.03332 0 0 0
55 0.00000 -0.50000 46.89935 0 0 0
56 0.00000 0.00000 47.76537 0 0 0
57 0.00000 -0.50000 48.63140 0 0 0
58 0.00000 0.00000 49.49742 0 0 0
59 0.00000 -0.50000 50.36345 0 0 0
60 0.00000 0.00000 51.22947 0 0 0
61 0.00000 -0.50000 52.09550 0 0 0
62 0.00000 0.00000 52.96152 0 0 0
63 0.00000 -0.50000 53.82755 0 0 0
64 0.00000 0.00000 54.69358 0 0 0
65 0.00000 -0.50000 55.55960 0 0 0
66 0.00000 0.00000 56.42563 0 0 0
67 0.00000 -0.50000 57.29165 0 0 0
68 0.00000 0.00000 58.15768 0 0 0
69 0.00000 -0.50000 59.02370 0 0 0
70 0.00000 0.00000 59.88973 0 0 0
71 0.00000 -0.50000 60.75575 0 0 0
72 0.00000 0.00000 61.62178 0 0 0
73 0.00000 -0.50000 62.48780 0 0 0
74 0.00000 0.00000 63.35383 0 0 0
75 0.00000 -0.50000 64.21985 0 0 0
76 0.00000 0.00000 65.08588 0 0 0
77 -0.94240 0.18531 65.36434 0 0 0
78 -1.88480 0.20655 65.69815 0 0 0
79 -2.82721 0.50626 65.84665 0 0 0
80 -3.76961 0.52751 66.18046 0 0 0
81 -4.71201 0.82722 66.32896 0 0 0
82 -5.65441 0.84847 66.66276 0 0 0
83 -6.59681 1.14818 66.81126 0 0 0
84 -7.53922 1.16943 67.14507 0 0 0
85 -8.48162 1.46914 67.29357 0 0 0
86 -9.42402 1.49039 67.62738 0 0 0
87 -10.36642 1.79010 67.77588 0 0 0
88 -11.30882 1.81135 68.10969 0 0 0
89 -12.25123 2.11106 68.25819 0 0 0
90 -13.19363 2.13231 68.59200 0 0 0
91 -14.13603 2.43202 68.74050 0 0 0
92 -15.07843 2.45327 69.07430 0 0 0
93 -16.02083 2.75298 69.22281 0 0 0
94 -16.96324 2.77423 69.55661 0 0 0
95 -17.90564 3.07394 69.70511 0 0 0
96 -18.84804 3.09518 70.03892 0 0 0
97 -19.79044 3.39489 70.18742 0 0 0
98 -20.73284 3.41614 70.52123 0 0 0
99 -21.67525 3.71585 70.66973 0 0 0
100 -22.61765 3.73710 71.00354 0 0 0
101 -23.56005 4.03681 71.15204 0 0 0
102 -24.50245 4.05806 71.48584 0 0 0
103 -25.44485 4.35777 71.63435 0 0 0
104 -26.38725 4.37902 71.96815 0 0 0
105 -27.32966 4.67873 72.11665 0 0 0
106 -28.27206 4.69998 72.45046 0 0 0
107 -29.21446 4.99969 72.59896 0 0 0
108 -30.15686 5.02094 72.93277 0 0 0
109 -31.09926 5.32065 73.08127 0 0 0
110 -32.04167 5.34190 73.41508 0 0 0
111 -32.98407 5.64161 73.56358 0 0 0
112 -33.92647 5.66285 73.89738 0 0 0
113 -34.86887 5.96256 74.04589 0 0 0
114 -35.81127 5.98381 74.37969 0 0 0
115 -36.75368 6.28352 74.52819 0 0 0
116 -37.69608 6.30477 74.86200 0 0 0
117 -38.63848 6.60448 75.01050 0 0 0
118 -39.58088 6.62573 75.34431 0 0 0
119 -40.52328 6.92544 75.49281 0 0 0
120 -41.46569 6.94669 75.82662 0 0 0
121 -42.40809 7.24640 75.97512 0 0 0
122 -43.35049 7.26765 76.30892 0 0 0
123 -44.29289 7.56736 76.45743 0 0 0
124 -45.23529 7.58861 76.79123 0 0 0
125 -46.17770 7.88832 76.93973 0 0 0
126 -47.12010 7.90957 77.27354 0 0 0
127 -48.06250 8.20928 77.42204 0 0 0
128 -49.00490 8.23053 77.75585 0 0 0
129 -49.94730 8.53024 77.90435 0 0 0
130 -50.88971 8.55148 78.23816 0 0 0
131 -51.83211 8.85119 78.38666 0 0 0
132 -52.77451 8.87244 78.72046 0 0 0
133 -53.71691 9.17215 78.86897 0 0 0
134 -54.65931 9.19340 79.20277 0 0 0
135 -55.60172 9.49311 79.35127 0 0 0
136 -56.54412 9.51436 79.68508 0 0 0
137 -57.48652 9.81407 79.83358 0 0 0
138 -58.42892 9.83532 80.16739 0 0 0
139 -59.37132 10.13503 80.31589 0 0 0
140 -60.31373 10.15628 80.64970 0 0 0
141 -61.25613 10.45599 80.79820 0 0 0
142 -62.19853 10.47724 81.13201 0 0 0
143 -63.14093 10.77695 81.28051 0 0 0
144 -64.08333 10.79820 81.61431 0 0 0
145 -65.02574 11.09791 81.76281 0 0 0
146 -65.96814 11.11915 82.09662 0 0 0
147 -66.91054 11.41886 82.24512 0 0 0
148 -67.85294 11.44011 82.57893 0 0 0
149 -68.79534 11.73982 82.72743 0 0 0
150 -69.73775 11.76107 83.06124 0 0 0
151 -70.68015 12.06078 83.20974 0 0 0
152 0.48960 0.86450 64.97221 0 0 0
153 0.97921 1.67002 65.30601 0 0 0
154 1.46881 2.36187 64.77532 0 0 0
155 1.95841 3.16739 65.10912 0 0 0
156 2.44802 3.85923 64.57843 0 0 0
157 2.93762 4.66475 64.91223 0 0 0
158 3.42722 5.35660 64.38154 0 0 0
159 3.91683 6.16212 64.71534 0 0 0
160 4.40643 6.85396 64.18465 0 0 0
161 4.89603 7.65948 64.51845 0 0 0
162 5.38564 8.35133 63.98776 0 0 0
163 5.87524 9.15685 64.32156 0 0 0
164 6.36484 9.84869 63.79086 0 0 0
165 6.85444 10.65421 64.12467 0 0 0
166 7.34405 11.34606 63.59397 0 0 0
167 7.83365 12.15157 63.92778 0 0 0
168 8.32325 12.84342 63.39708 0 0 0
169 8.81286 13.64894 63.73089 0 0 0
170 9.30246 14.34078 63.20019 0 0 0
171 9.79206 15.14630 63.53400 0 0 0
172 10.28167 15.83815 63.00330 0 0 0
173 10.77127 16.64367 63.33711 0 0 0
174 11.26087 17.33551 62.80641 0 0 0
175 11.75048 18.14103 63.14022 0 0 0
176 12.24008 18.83288 62.60952 0 0 0
177 12.72968 19.63840 62.94333 0 0 0
178 13.21929 20.33024 62.41263 0 0 0
179 13.70889 21.13576 62.74644 0 0 0
180 14.19849 21.82761 62.21574 0 0 0
181 14.68810 22.63313 62.54955 0 0 0
182 15.17770 23.32497 62.01885 0 0 0
183 15.66730 24.13049 62.35266 0 0 0
184 16.15691 24.82234 61.82196 0 0 0
185 16.64651 25.62785 62.15577 0 0 0
186 17.13611 26.31970 61.62507 0 0 0
187 17.62572 27.12522 61.95888 0 0 0
188 18.11532 27.81706 61.42818 0 0 0
189 18.60492 28.62258 61.76199 0 0 0
190 19.09453 29.31443 61.23129 0 0 0
191 19.58413 30.11995 61.56510 0 0 0
192 20.07373 30.81179 61.03440 0 0 0
193 20.56333 31.61731 61.36821 0 0 0
194 21.05294 32.30916 60.83751 0 0 0
195 21.54254 33.11468 61.17132 0 0 0
196 22.03214 33.80652 60.64062 0 0 0
197 22.52175 34.61204 60.97443 0 0 0
198 23.01135 35.30389 60.44373 0 0 0
199 23.50095 36.10941 60.77754 0 0 0
200 23.99056 36.80125 60.24684 0 0 0
201 24.48016 37.60677 60.58065 0 0 0
202 24.96976 38.29862 60.04995 0 0 0
203 25.45937 39.10414 60.38376 0 0 0
204 25.94897 39.79598 59.85306 0 0 0
205 26.43857 40.60150 60.18687 0 0 0
206 26.92818 41.29334 59.65617 0 0 0
207 27.41778 42.09886 59.98998 0 0 0
208 27.90738 42.79071 59.45928 0 0 0
209 28.39699 43.59623 59.79309 0 0 0
210 28.88659 44.28807 59.26239 0 0 0
211 29.37619 45.09359 59.59620 0 0 0
212 29.86580 45.78544 59.06550 0 0 0
213 30.35540 46.59096 59.39931 0 0 0
214 30.84500 47.28280 58.86861 0 0 0
215 31.33461 48.08832 59.20242 0 0 0
216 31.82421 48.78017 58.67172 0 0 0
217 32.31381 49.58569 59.00553 0 0 0
218 32.80342 50.27753 58.47483 0 0 0
219 33.29302 51.08305 58.80864 0 0 0
220 33.78262 51.77490 58.27794 0 0 0
221 34.27222 52.58042 58.61175 0 0 0
222 34.76183 53.27226 58.08105 0 0 0
223 35.25143 54.07778 58.41486 0 0 0
224 35.74103 54.76962 57.88416 0 0 0
225 36.23064 55.57514 58.21797 0 0 0
226 36.72024 56.26699 57.68727 0 0 0
227 0.45280 -0.54910 65.78835 0 0 0
228 0.90560 -1.37587 66.12216 0 0 0
229 1.35840 -1.50017 67.00506 0 0 0
230 1.81119 -2.32694 67.33887 0 0 0
231 2.26399 -2.45123 68.22178 0 0 0
232 2.71679 -3.27800 68.55558 0 0 0
233 3.16959 -3.40230 69.43849 0 0 0
234 3.62239 -4.22907 69.77229 0 0 0
235 4.07519 -4.35337 70.65520 0 0 0
236 4.52799 -5.18014 70.98901 0 0 0
237 4.98079 -5.30444 71.87191 0 0 0
238 5.43358 -6.13121 72.20572 0 0 0
239 5.88638 -6.25551 73.08863 0 0 0
240 6.33918 -7.08227 73.42243 0 0 0
241 6.79198 -7.20657 74.30534 0 0 0
242 7.24478 -8.03334 74.63915 0 0 0
243 7.69758 -8.15764 75.52205 0 0 0
244 8.15038 -8.98441 75.85586 0 0 0
245 8.60318 -9.10871 76.73877 0 0 0
246 9.05597 -9.93548 77.07257 0 0 0
247 9.50877 -10.05978 77.95548 0 0 0
248 9.96157 -10.88654 78.28929 0 0 0
249 10.41437 -11.01084 79.17219 0 0 0
250 10.86717 -11.83761 79.50600 0 0 0
251 11.31997 -11.96191 80.38890 0 0 0
252 11.77277 -12.78868 80.72271 0 0 0
253 12.22557 -12.91298 81.60562 0 0 0
254 12.67836 -13.73975 81.93942 0 0 0
255 13.13116 -13.86405 82.82233 0 0 0
256 13.58396 -14.69081 83.15614 0 0 0
257 14.03676 -14.81511 84.03904 0 0 0
258 14.48956 -15.64188 84.37285 0 0 0
259 14.94236 -15.76618 85.25576 0 0 0
260 15.39516 -16.59295 85.58956 0 0 0
261 15.84796 -16.71725 86.47247 0 0 0
262 16.30075 -17.54402 86.80628 0 0 0
263 16.75355 -17.66832 87.68918 0 0 0
264 17.20635 -18.49509 88.02299 0 0 0
265 17.65915 -18.61938 88.90589 0 0 0
266 18.11195 -19.44615 89.23970 0 0 0
267 18.56475 -19.57045 90.12261 0 0 0
268 19.01755 -20.39722 90.45641 0 0 0
269 19.47035 -20.52152 91.33932 0 0 0
270 19.92314 -21.34829 91.67313 0 0 0
271 20.37594 -21.47259 92.55603 0 0 0
272 20.82874 -22.29936 92.88984 0 0 0
273 21.28154 -22.42365 93.77275 0 0 0
274 21.73434 -23.25042 94.10655 0 0 0
275 22.18714 -23.37472 94.98946 0 0 0
276 22.63994 -24.20149 95.32327 0 0 0
277 23.09274 -24.32579 96.20617 0 0 0
278 23.54553 -25.15256 96.53998 0 0 0
279 23.99833 -25.27686 97.42288 0 0 0
280 24.45113 -26.10363 97.75669 0 0 0
281 24.90393 -26.22793 98.63960 0 0 0
282 25.35673 -27.05469 98.97340 0 0 0
283 25.80953 -27.17899 99.85631 0 0 0
284 26.26233 -28.00576 100.19012 0 0 0
285 26.71513 -28.13006 101.07302 0 0 0
286 27.16792 -28.95683 101.40683 0 0 0
287 27.62072 -29.08113 102.28974 0 0 0
288 28.07352 -29.90790 102.62354 0 0 0
289 28.52632 -30.03220 103.50645 0 0 0
290 28.97912 -30.85896 103.84026 0 0 0
291 29.43192 -30.98326 104.72316 0 0 0
292 29.88472 -31.81003 105.05697 0 0 0
293 30.33752 -31.93433 105.93987 0 0 0
294 30.79031 -32.76110 106.27368 0 0 0
295 31.24311 -32.88540 107.15659 0 0 0
296 31.69591 -33.71217 107.49039 0 0 0
297 32.14871 -33.83647 108.37330 0 0 0
298 32.60151 -34.66324 108.70711 0 0 0
299 33.05431 -34.78753 109.59001 0 0 0
300 33.50711 -35.61430 109.92382 0 0 0
301 33.95991 -35.73860 110.80673 0 0 0
ITEM: TIMESTEP
1000
ITEM: NUMBER OF ATOMS
301
ITEM: BOX BOUNDS pp pp pp
-1.0000000000000000e+03 1.0000000000000000e+03
-1.0000000000000000e+03 1.0000000000000000e+03
-1.0000000000000000e+03 1.0000000000000000e+03
ITEM: ATOMS id x y z ix iy iz
1 0.91168 -1.80456 3.21534 0 0 0
2 0.68196 -2.19815 4.02348 0 0 0
3 0.35877 -2.40624 4.96063 0 0 0
4 0.33812 -2.04160 5.88994 0 0 0
5 -0.21616 -2.24191 6.64883 0 0 0
6 -0.60791 -1.28587 6.76843 0 0 0
7 -0.81301 -1.01116 7.67899 0 0 0
8 -0.54867 -1.10539 8.58073 0 0 0
9 -0.37021 -2.00275 8.92384 0 0 0
10 0.40974 -1.90843 9.46602 0 0 0
11 0.27026 -1.36333 10.30959 0 0 0
12 -0.15594 -1.00061 11.11704 0 0 0
13 -0.38260 -1.51693 11.90854 0 0 0
14 -1.11419 -2.12960 12.31832 0 0 0
15 -1.51548 -1.29022 12.67932 0 0 0
16 -1.79993 -1.36371 13.63417 0 0 0
17 -1.98913 -1.04139 14.57865 0 0 0
18 -1.68209 -1.01745 15.50543 0 0 0
19 -1.34054 -0.69362 16.37319 0 0 0
20 -0.87371 -0.95349 17.30557 0 0 0
21 -0.69132 -0.46857 18.19928 0 0 0
22 -1.02684 -0.04418 19.12024 0 0 0
23 -1.38088 0.21950 19.99719 0 0 0
24 -1.49485 0.30586 21.01755 0 0 0
25 -1.31904 0.00523 21.89387 0 0 0
26 -1.39437 0.26448 22.87107 0 0 0
27 -1.32760 0.46858 23.85355 0 0 0
28 -1.48166 0.52332 24.80591 0 0 0
29 -1.30984 0.42575 25.78674 0 0 0
30 -0.89305 0.44162 26.76947 0 0 0
31 -1.32644 0.87912 27.51059 0 0 0
32 -0.86396 1.39823 28.18618 0 0 0
33 -0.84005 1.37905 29.24038 0 0 0
34 -1.35068 1.27424 30.00348 0 0 0
35 -0.91295 0.98839 30.80113 0 0 0
36 -0.73241 1.66055 31.58287 0 0 0
37 -0.64866 1.34305 32.49851 0 0 0
38 -0.03378 0.98838 33.13895 0 0 0
39 0.13756 0.99046 34.09440 0 0 0
40 0.56115 0.54787 34.91125 0 0 0
41 0.13947 0.45629 35.77998 0 0 0
42 -0.21604 -0.37059 36.19074 0 0 0
43 -0.37255 -0.45987 37.15465 0 0 0
44 -0.73885 -0.27266 38.00778 0 0 0
45 -1.09091 0.14114 38.81083 0 0 0
46 -1.17088 0.00615 39.79450 0 0 0
47 -0.65668 0.04097 40.59762 0 0 0
48 -0.53321 -0.08460 41.52074 0 0 0
49 -0.18543 -0.45167 42.32728 0 0 0
50 -0.55927 -0.19466 43.21502 0 0 0
51 -0.46337 -0.17342 44.22314 0 0 0
52 -0.33990 -0.57548 45.09491 0 0 0
53 -0.73968 -0.62042 46.01398 0 0 0
54 -0.65208 -0.61406 46.94589 0 0 0
55 -0.68919 -0.20923 47.84116 0 0 0
56 -0.85065 -0.34042 48.76968 0 0 0
57 -0.64254 -0.60951 49.69045 0 0 0
58 -0.52150 -1.14377 50.47505 0 0 0
59 -1.26867 -1.22883 51.05341 0 0 0
60 -1.42470 -0.77017 51.88219 0 0 0
61 -1.25859 -0.28017 52.71586 0 0 0
62 -1.23815 -0.47935 53.79508 0 0 0
63 -1.41845 -0.73855 54.75188 0 0 0
64 -0.94388 -0.51733 55.64691 0 0 0
65 -1.10711 -0.70595 56.65611 0 0 0
66 -0.76544 -1.33795 57.39585 0 0 0
67 -0.22084 -1.57058 58.19099 0 0 0
68 0.00448 -0.89252 59.09048 0 0 0
69 -0.63952 -0.60195 59.73591 0 0 0
70 -1.10438 -0.83561 60.61250 0 0 0
71 -1.16530 -0.77926 61.59859 0 0 0
72 -1.08953 -0.74584 62.53821 0 0 0
73 -1.12670 -0.42401 63.46005 0 0 0
74 -0.84014 -0.16147 64.42128 0 0 0
75 -1.31187 0.04547 65.23029 0 0 0
76 -1.27119 0.29049 66.22739 0 0 0
77 -2.16904 0.62861 66.16715 0 0 0
78 -2.97656 0.45899 66.63805 0 0 0
79 -3.96355 0.69483 66.48568 0 0 0
80 -4.62336 1.36894 66.84134 0 0 0
81 -5.51610 1.87941 67.06012 0 0 0
82 -6.45529 2.05450 66.86238 0 0 0
83 -7.28233 1.99949 67.31653 0 0 0
84 -8.04848 1.62444 67.71341 0 0 0
85 -8.89765 1.81592 68.24448 0 0 0
86 -9.88288 2.01615 68.36138 0 0 0
87 -10.82985 2.18953 68.55955 0 0 0
88 -11.69836 2.38555 68.12778 0 0 0
89 -12.51796 2.21402 68.67060 0 0 0
90 -13.24543 2.47184 69.28487 0 0 0
91 -14.22513 2.74487 69.39360 0 0 0
92 -14.88731 2.91332 69.99441 0 0 0
93 -15.86091 3.12511 69.69599 0 0 0
94 -16.89573 3.07560 69.40451 0 0 0
95 -17.88250 3.28600 69.66248 0 0 0
96 -18.87811 3.35998 69.64602 0 0 0
97 -19.82084 3.37832 69.88297 0 0 0
98 -20.61191 3.17645 70.39118 0 0 0
99 -21.48816 3.12062 70.84244 0 0 0
100 -22.40294 3.48323 71.16873 0 0 0
101 -23.31124 3.63257 71.42011 0 0 0
102 -24.25223 3.77341 71.63463 0 0 0
103 -25.20962 3.84989 71.75356 0 0 0
104 -26.18221 4.00669 71.55403 0 0 0
105 -26.97493 4.37864 71.20709 0 0 0
106 -27.84020 4.68755 71.62515 0 0 0
107 -28.67132 4.53245 72.26150 0 0 0
108 -29.65656 4.73985 72.40520 0 0 0
109 -30.46937 4.76426 72.84347 0 0 0
110 -30.67923 5.50726 73.42511 0 0 0
111 -31.28208 5.52879 74.19758 0 0 0
112 -32.22719 5.69309 74.16606 0 0 0
113 -33.11820 5.30692 74.04728 0 0 0
114 -34.00462 5.18603 74.43231 0 0 0
115 -34.77455 5.61401 74.72850 0 0 0
116 -35.56515 6.07700 74.98182 0 0 0
117 -36.47266 6.26548 75.38325 0 0 0
118 -37.27276 5.77680 75.07985 0 0 0
119 -38.02163 5.85972 75.62824 0 0 0
120 -38.90598 6.12425 75.24916 0 0 0
121 -39.88655 6.40474 75.57227 0 0 0
122 -40.94758 6.51691 75.69965 0 0 0
123 -41.84786 6.91912 75.77769 0 0 0
124 -42.78743 7.14820 75.56929 0 0 0
125 -43.63094 6.90019 75.99347 0 0 0
126 -44.27052 7.30221 76.62966 0 0 0
127 -45.22701 7.43620 76.82353 0 0 0
128 -46.04927 7.67084 77.22396 0 0 0
129 -46.96409 7.80844 76.76760 0 0 0
130 -47.91653 7.63722 76.59620 0 0 0
131 -48.84563 7.66020 76.77215 0 0 0
132 -49.14829 7.35436 77.65985 0 0 0
133 -50.15630 7.54918 77.81727 0 0 0
134 -50.86938 7.64064 78.53092 0 0 0
135 -51.56227 7.92943 79.24588 0 0 0
136 -52.18575 8.76817 79.32666 0 0 0
137 -53.20325 9.03360 79.49996 0 0 0
138 -54.03495 9.27452 79.91812 0 0 0
139 -54.55945 9.57465 80.70448 0 0 0
140 -55.50335 9.32874 80.96978 0 0 0
141 -56.52285 9.42121 80.73340 0 0 0
142 -57.48156 9.41548 80.54969 0 0 0
143 -57.94060 10.26490 80.13486 0 0 0
144 -58.34654 10.97093 80.64334 0 0 0
145 -59.31911 10.97410 80.43207 0 0 0
146 -60.05527 11.48110 80.83452 0 0 0
147 -60.94466 11.37016 81.23136 0 0 0
148 -61.79007 11.29989 81.69985 0 0 0
149 -62.02256 10.54487 82.24349 0 0 0
150 -62.93392 10.27859 81.87732 0 0 0
151 -63.78360 9.93446 81.51669 0 0 0
152 -0.84514 1.20590 66.36432 0 0 0
153 -0.29176 2.11102 66.34408 0 0 0
154 -0.25652 2.91183 65.84831 0 0 0
155 0.38864 3.60474 65.64545 0 0 0
156 0.55691 4.58652 65.75141 0 0 0
157 1.08310 5.34293 65.33947 0 0 0
158 1.77047 6.20547 65.32975 0 0 0
159 2.35071 6.96342 65.39854 0 0 0
160 2.99839 7.66128 65.17135 0 0 0
161 3.57249 8.44200 65.12375 0 0 0
162 4.41381 9.07695 64.96269 0 0 0
163 5.01545 9.88265 64.93903 0 0 0
164 5.84350 10.42318 65.00600 0 0 0
165 6.75399 10.93137 64.98410 0 0 0
166 7.43161 11.60716 65.08071 0 0 0
167 8.06418 12.37102 64.67844 0 0 0
168 8.25677 13.32925 64.95902 0 0 0
169 9.03477 14.04325 64.73479 0 0 0
170 9.72456 14.68637 64.58637 0 0 0
171 10.16462 15.48363 64.89685 0 0 0
172 10.29650 16.39051 65.25584 0 0 0
173 10.85709 17.20049 65.14851 0 0 0
174 11.66082 17.81056 64.90834 0 0 0
175 12.03231 18.77995 65.02900 0 0 0
176 12.27057 19.66767 64.61915 0 0 0
177 12.59645 20.48911 64.22125 0 0 0
178 12.45034 21.35950 63.82944 0 0 0
179 13.10561 22.01838 63.40836 0 0 0
180 13.22207 23.05711 63.32999 0 0 0
181 13.22997 24.01774 63.12830 0 0 0
182 13.91056 24.74654 63.15379 0 0 0
183 14.23474 25.51761 62.63423 0 0 0
184 15.14959 25.94981 62.61256 0 0 0
185 15.97381 26.58322 62.45289 0 0 0
186 16.60290 27.20574 62.06709 0 0 0
187 17.17052 27.98208 62.05515 0 0 0
188 17.72953 28.72817 61.89659 0 0 0
189 18.37304 29.59402 61.86667 0 0 0
190 18.91081 29.95144 61.03362 0 0 0
191 19.72301 30.51346 60.83973 0 0 0
192 20.30362 31.29309 60.99049 0 0 0
193 21.13691 31.69428 61.46907 0 0 0
194 22.00243 31.96914 61.93207 0 0 0
195 22.90054 32.22301 61.71186 0 0 0
196 23.08565 33.05702 61.35514 0 0 0
197 23.10270 34.02749 61.22120 0 0 0
198 23.07369 34.97932 61.26812 0 0 0
199 23.29253 35.92577 60.92388 0 0 0
200 23.97506 36.63524 61.10253 0 0 0
201 24.20970 37.56757 60.90072 0 0 0
202 24.83541 38.32928 60.66978 0 0 0
203 25.22848 39.17825 60.17868 0 0 0
204 25.57818 40.07007 59.90785 0 0 0
205 26.28389 40.86740 59.75572 0 0 0
206 27.21664 41.33603 59.89902 0 0 0
207 27.15138 42.28785 59.59399 0 0 0
208 27.24857 43.09591 58.97892 0 0 0
209 27.67907 43.81279 58.41700 0 0 0
210 27.59836 44.61854 57.83474 0 0 0
211 28.12493 45.50564 57.95721 0 0 0
212 28.98994 45.67432 57.56652 0 0 0
213 29.50671 46.48445 57.72955 0 0 0
214 30.16121 46.80445 58.40726 0 0 0
215 30.54603 47.38535 59.26202 0 0 0
216 31.34157 47.94146 59.07210 0 0 0
217 32.16440 48.43236 59.19055 0 0 0
218 32.78542 49.09215 58.91742 0 0 0
219 33.74120 49.52847 58.73967 0 0 0
220 33.77361 50.47585 58.77729 0 0 0
221 34.07680 51.41275 59.01638 0 0 0
222 34.73839 52.16375 58.96965 0 0 0
223 35.10595 52.93065 58.39418 0 0 0
224 34.93280 53.48181 57.53252 0 0 0
225 34.94894 53.75545 56.56761 0 0 0
226 35.49948 54.46254 56.15357 0 0 0
227 -0.42543 0.01855 66.85169 0 0 0
228 0.22526 -0.68223 67.21228 0 0 0
229 0.97331 -1.27603 67.52925 0 0 0
230 1.71830 -1.40188 68.30304 0 0 0
231 2.10069 -1.99433 69.00012 0 0 0
232 2.51636 -2.69599 69.57280 0 0 0
233 3.38691 -2.95532 70.06726 0 0 0
234 4.08754 -3.38223 70.53171 0 0 0
235 4.54734 -3.18917 71.34487 0 0 0
236 4.62954 -4.07236 71.84275 0 0 0
237 5.16784 -4.48637 72.60790 0 0 0
238 5.85293 -5.18768 72.81836 0 0 0
239 6.12323 -5.47089 73.72955 0 0 0
240 6.72992 -5.65318 74.44338 0 0 0
241 7.24008 -6.43657 74.71517 0 0 0
242 8.13772 -6.54538 75.11796 0 0 0
243 8.51672 -7.45399 75.39952 0 0 0
244 9.44120 -7.66111 75.75108 0 0 0
245 9.68491 -8.22414 76.51164 0 0 0
246 9.87764 -9.17679 76.84972 0 0 0
247 10.55533 -9.71986 77.29634 0 0 0
248 10.99140 -9.62180 78.19207 0 0 0
249 11.38917 -10.60780 78.21361 0 0 0
250 11.41621 -11.02935 79.10402 0 0 0
251 11.55795 -11.55203 79.94952 0 0 0
252 11.80498 -12.55921 80.01353 0 0 0
253 11.95390 -12.70176 81.05400 0 0 0
254 11.70180 -13.26174 81.78277 0 0 0
255 12.31012 -13.99472 82.02912 0 0 0
256 13.15116 -14.44858 82.25751 0 0 0
257 13.79777 -15.12974 82.48568 0 0 0
258 13.73951 -15.96855 83.18653 0 0 0
259 14.47220 -15.85073 83.72347 0 0 0
260 15.00125 -16.42970 84.33151 0 0 0
261 15.75529 -16.78040 84.92358 0 0 0
262 16.19362 -17.30362 85.69482 0 0 0
263 16.74145 -17.89603 86.20170 0 0 0
264 17.27248 -18.22049 87.00539 0 0 0
265 17.85767 -18.35538 87.91671 0 0 0
266 18.08363 -19.24005 88.29054 0 0 0
267 18.35962 -19.83193 88.99584 0 0 0
268 18.54616 -20.31451 89.79585 0 0 0
269 19.35245 -20.65122 90.20881 0 0 0
270 20.04122 -21.13620 90.80618 0 0 0
271 20.41730 -21.32801 91.78063 0 0 0
272 21.05945 -21.61380 92.42249 0 0 0
273 21.73525 -22.23817 92.86863 0 0 0
274 22.21528 -22.79130 93.52036 0 0 0
275 22.33360 -23.33370 94.34003 0 0 0
276 22.72218 -24.14358 94.79376 0 0 0
277 23.01351 -24.72544 95.57075 0 0 0
278 22.57464 -25.12874 96.39553 0 0 0
279 22.99447 -26.01027 96.64906 0 0 0
280 23.35340 -26.23644 97.52624 0 0 0
281 24.09366 -26.38624 98.19583 0 0 0
282 24.64442 -26.92665 98.77879 0 0 0
283 24.60639 -27.80978 99.18913 0 0 0
284 24.92173 -28.45284 99.83609 0 0 0
285 24.83528 -28.90141 100.69368 0 0 0
286 25.41000 -29.56146 101.20947 0 0 0
287 25.46532 -30.53018 101.54763 0 0 0
288 26.39944 -30.83517 101.94858 0 0 0
289 26.94741 -31.24515 102.59360 0 0 0
290 26.63862 -30.59629 103.28823 0 0 0
291 27.25865 -30.61559 104.04539 0 0 0
292 28.16980 -31.13064 103.92657 0 0 0
293 29.16491 -31.10351 104.02437 0 0 0
294 29.47351 -32.00619 104.08810 0 0 0
295 29.42496 -31.85617 105.03049 0 0 0
296 29.88720 -32.45769 105.66385 0 0 0
297 29.88440 -33.46791 105.52139 0 0 0
298 29.58139 -34.04862 106.29823 0 0 0
299 30.24866 -34.30270 106.90552 0 0 0
300 31.09480 -34.19398 106.53505 0 0 0
301 31.71548 -34.65870 107.12418 0 0 0
ITEM: TIMESTEP
2000
ITEM: NUMBER OF ATOMS
301
ITEM: BOX BOUNDS pp pp pp
-1.0000000000000000e+03 1.0000000000000000e+03
-1.0000000000000000e+03 1.0000000000000000e+03
-1.0000000000000000e+03 1.0000000000000000e+03
ITEM: ATOMS id x y z ix iy iz
1 -1.00244 -1.02511 5.04120 0 0 0
2 -0.69578 -1.51028 5.86182 0 0 0
3 0.14678 -1.12250 6.23033 0 0 0
4 0.81173 -1.72611 6.66353 0 0 0
5 0.70212 -2.19432 7.56008 0 0 0
6 0.84287 -1.49534 8.16811 0 0 0
7 0.74857 -1.37854 9.16113 0 0 0
8 0.49408 -1.22816 10.03580 0 0 0
9 0.91089 -1.37071 10.88688 0 0 0
10 0.82695 -1.73630 11.76639 0 0 0
11 1.26759 -1.48363 12.59854 0 0 0
12 1.49508 -1.78651 13.48642 0 0 0
13 2.22192 -1.69746 14.09026 0 0 0
14 1.37799 -1.83362 14.67713 0 0 0
15 0.45291 -1.71194 14.80953 0 0 0
16 0.28122 -0.75031 15.14818 0 0 0
17 0.14322 -1.17469 16.00716 0 0 0
18 -0.27874 -1.31133 16.86836 0 0 0
19 -0.35258 -1.15165 17.83106 0 0 0
20 -0.55520 -0.87320 18.74914 0 0 0
21 -0.27037 -0.56172 19.61181 0 0 0
22 0.05626 -0.29507 20.48189 0 0 0
23 -0.19514 -0.33010 21.36363 0 0 0
24 -0.16335 0.18125 22.21984 0 0 0
25 -0.69867 0.84408 22.83651 0 0 0
26 -0.45343 0.93894 23.77285 0 0 0
27 -0.76866 1.12644 24.68319 0 0 0
28 -1.40192 1.26497 25.47555 0 0 0
29 -0.58898 0.98895 26.00521 0 0 0
30 -0.32020 0.89697 26.93434 0 0 0
31 0.34257 0.35317 27.42932 0 0 0
32 0.70770 0.37910 28.29156 0 0 0
33 1.24134 0.95518 28.95842 0 0 0
34 1.32164 1.23067 29.88381 0 0 0
35 1.77254 1.20712 30.78804 0 0 0
36 1.42368 1.26153 31.65966 0 0 0
37 1.40005 1.17970 32.66704 0 0 0
38 1.99918 0.60357 33.24686 0 0 0
39 2.09366 0.32834 34.09982 0 0 0
40 1.49486 0.23896 34.87514 0 0 0
41 0.69826 0.24069 35.46261 0 0 0
42 0.82286 -0.17148 36.33839 0 0 0
43 1.14173 -0.60762 37.12430 0 0 0
44 1.09780 -1.09549 37.93180 0 0 0
45 0.68207 -1.37553 38.83622 0 0 0
46 0.74236 -1.44242 39.79246 0 0 0
47 0.95213 -0.82984 40.52453 0 0 0
48 0.81653 -1.04411 41.48844 0 0 0
49 0.64866 -1.39982 42.40364 0 0 0
50 0.26050 -1.58205 43.31022 0 0 0
51 0.01442 -1.48204 44.22899 0 0 0
52 -0.06486 -1.52679 45.16966 0 0 0
53 0.20466 -1.88593 45.98251 0 0 0
54 -0.13204 -2.56103 46.46247 0 0 0
55 -0.49674 -2.34644 47.37285 0 0 0
56 -1.23379 -1.86284 47.89408 0 0 0
57 -1.32859 -1.59290 48.95503 0 0 0
58 -1.31840 -1.64187 49.88072 0 0 0
59 -1.24302 -1.06763 50.70943 0 0 0
60 -1.02397 -0.66583 51.59154 0 0 0
61 -0.45717 -0.56749 52.44566 0 0 0
62 -0.12293 -0.07354 53.24609 0 0 0
63 -0.65433 0.17951 54.13887 0 0 0
64 -0.71253 -0.33922 55.00120 0 0 0
65 -0.96147 0.08502 55.94295 0 0 0
66 -0.87038 0.21735 56.94777 0 0 0
67 -0.49600 0.13513 57.79730 0 0 0
68 -0.15957 0.58644 58.65286 0 0 0
69 0.23550 0.85424 59.56013 0 0 0
70 -0.31249 1.02840 60.41667 0 0 0
71 -0.00184 1.25646 61.31412 0 0 0
72 -0.56013 1.09019 62.09521 0 0 0
73 -0.69449 1.29087 63.07684 0 0 0
74 -0.86868 1.08772 64.00455 0 0 0
75 -1.00127 1.21423 65.00547 0 0 0
76 -0.97956 0.99924 66.00606 0 0 0
77 -1.90944 1.05047 66.09601 0 0 0
78 -2.77584 1.43869 66.10346 0 0 0
79 -3.57981 1.67638 66.60586 0 0 0
80 -4.44445 2.16217 66.66816 0 0 0
81 -5.43038 2.42789 66.52607 0 0 0
82 -6.20823 2.61687 67.05364 0 0 0
83 -7.13425 3.01518 67.34064 0 0 0
84 -8.03119 2.82136 67.65844 0 0 0
85 -8.84684 2.45294 67.91262 0 0 0
86 -9.81733 2.45508 67.91646 0 0 0
87 -10.51178 3.11871 67.94925 0 0 0
88 -10.77380 2.37969 68.69445 0 0 0
89 -11.35651 2.43227 69.49209 0 0 0
90 -12.37136 2.51545 69.38180 0 0 0
91 -13.28314 2.70732 69.60986 0 0 0
92 -14.12400 2.68424 70.04545 0 0 0
93 -14.83041 2.12320 69.70397 0 0 0
94 -15.51887 2.81479 69.53488 0 0 0
95 -16.11813 3.51055 69.51183 0 0 0
96 -17.01813 3.23588 69.79411 0 0 0
97 -17.95226 2.97771 69.97079 0 0 0
98 -18.86154 3.35358 70.13296 0 0 0
99 -19.48427 4.17062 70.34075 0 0 0
100 -20.51562 4.27673 69.90723 0 0 0
101 -21.50632 4.71077 69.72626 0 0 0
102 -22.49751 4.60418 69.90262 0 0 0
103 -23.36057 5.02604 69.99942 0 0 0
104 -24.27995 5.11894 70.23657 0 0 0
105 -25.21742 4.96123 70.34318 0 0 0
106 -25.92798 5.22189 71.05897 0 0 0
107 -26.83656 5.47243 70.78705 0 0 0
108 -27.89334 5.48061 70.87900 0 0 0
109 -28.82272 5.82691 71.05370 0 0 0
110 -29.66178 5.95528 71.50938 0 0 0
111 -30.65812 5.91554 71.25138 0 0 0
112 -31.48960 6.13281 71.63500 0 0 0
113 -32.56282 6.34533 71.62755 0 0 0
114 -33.02880 6.55800 72.43798 0 0 0
115 -33.84974 6.95201 72.74680 0 0 0
116 -34.64752 6.48262 73.05219 0 0 0
117 -35.01018 7.35937 73.54101 0 0 0
118 -35.73913 7.19784 74.12107 0 0 0
119 -36.57105 7.06211 74.66252 0 0 0
120 -37.39157 6.67570 74.76576 0 0 0
121 -38.05171 6.02431 75.18591 0 0 0
122 -38.76597 5.67633 75.76948 0 0 0
123 -39.64065 5.66548 76.21312 0 0 0
124 -40.67404 5.82578 76.28155 0 0 0
125 -41.16286 6.48053 75.85031 0 0 0
126 -41.88362 6.95668 76.23968 0 0 0
127 -42.80560 7.15841 76.00546 0 0 0
128 -43.76018 7.31842 75.87880 0 0 0
129 -44.54746 7.27258 76.49758 0 0 0
130 -45.03220 6.79594 77.13024 0 0 0
131 -46.00369 7.10875 77.09759 0 0 0
132 -46.97243 6.95783 77.20628 0 0 0
133 -47.88551 7.16054 77.20525 0 0 0
134 -48.67884 7.71327 77.32964 0 0 0
135 -49.71433 7.99368 77.28047 0 0 0
136 -50.44132 7.86693 77.87305 0 0 0
137 -51.00812 8.49344 78.57248 0 0 0
138 -51.72744 9.01124 78.96612 0 0 0
139 -52.50037 9.47754 79.26057 0 0 0
140 -53.27501 10.09141 79.64776 0 0 0
141 -54.22308 9.81706 79.55056 0 0 0
142 -54.90792 9.66405 78.89393 0 0 0
143 -55.88697 9.70404 79.03309 0 0 0
144 -56.44965 10.15612 78.31747 0 0 0
145 -57.26414 9.86782 78.73692 0 0 0
146 -57.99659 10.51419 78.97807 0 0 0
147 -58.70469 10.97065 78.47374 0 0 0
148 -58.78393 11.87137 78.71223 0 0 0
149 -59.56518 11.65522 79.20077 0 0 0
150 -60.50722 11.80058 79.30034 0 0 0
151 -61.45227 11.46822 79.45216 0 0 0
152 -0.75635 2.03098 66.05945 0 0 0
153 -0.36390 2.64938 66.71783 0 0 0
154 0.02068 3.29098 67.35078 0 0 0
155 0.82548 3.79751 67.55909 0 0 0
156 1.22560 4.59274 67.12648 0 0 0
157 1.83047 5.32898 66.75247 0 0 0
158 2.21404 6.21523 66.74529 0 0 0
159 2.74897 7.07314 66.81799 0 0 0
160 3.31234 7.92086 66.61937 0 0 0
161 3.85289 8.77162 66.28340 0 0 0
162 4.44264 9.53836 66.53490 0 0 0
163 4.65092 10.48412 66.31617 0 0 0
164 5.06959 11.29796 66.03554 0 0 0
165 5.18610 12.31141 65.91909 0 0 0
166 5.65608 13.13141 65.73204 0 0 0
167 6.04361 13.83214 65.06241 0 0 0
168 6.68636 14.52332 64.60150 0 0 0
169 7.01934 15.30054 64.12070 0 0 0
170 7.37159 16.24814 64.14466 0 0 0
171 8.31172 16.29850 64.42150 0 0 0
172 9.21428 16.66691 64.57042 0 0 0
173 9.65376 17.52208 64.74232 0 0 0
174 10.09931 18.39546 64.89689 0 0 0
175 10.48660 19.25307 64.86358 0 0 0
176 10.90299 19.94561 65.37532 0 0 0
177 11.60372 20.54326 65.22136 0 0 0
178 12.23902 21.28945 65.41817 0 0 0
179 12.62831 22.05488 64.89880 0 0 0
180 13.14547 22.53839 64.21897 0 0 0
181 14.02214 22.74900 63.72737 0 0 0
182 14.59168 23.32487 63.26744 0 0 0
183 15.09208 24.12668 62.79615 0 0 0
184 15.53576 24.99505 62.48559 0 0 0
185 16.03182 25.89178 62.59430 0 0 0
186 15.57296 26.66220 62.65301 0 0 0
187 16.15702 27.39772 62.49825 0 0 0
188 16.15952 28.22049 61.94080 0 0 0
189 17.08021 28.52145 61.82605 0 0 0
190 17.71884 29.27706 61.46017 0 0 0
191 17.70468 30.28611 61.53200 0 0 0
192 17.99207 31.12896 61.12111 0 0 0
193 17.93237 31.50542 60.14168 0 0 0
194 18.57718 32.06450 59.60334 0 0 0
195 19.09197 32.89867 59.36940 0 0 0
196 19.61259 33.78126 59.34403 0 0 0
197 20.14609 34.54711 59.09085 0 0 0
198 20.30106 35.47747 59.19290 0 0 0
199 21.01103 36.15618 59.16762 0 0 0
200 21.75870 36.78151 58.90460 0 0 0
201 22.11627 37.68441 59.08987 0 0 0
202 22.59774 38.24094 58.45832 0 0 0
203 23.40975 38.63348 58.89026 0 0 0
204 24.10277 39.16697 58.50815 0 0 0