ITEM: TIMESTEP
0
ITEM: NUMBER OF ATOMS
401
ITEM: BOX BOUNDS pp pp pp
-1.0000000000000000e+03 1.0000000000000000e+03
-1.0000000000000000e+03 1.0000000000000000e+03
-1.0000000000000000e+03 1.0000000000000000e+03
ITEM: ATOMS id x y z ix iy iz
1 0.00000 0.00000 0.00000 0 0 0
2 0.00000 0.00000 1.00000 0 0 0
3 0.00000 -0.50000 1.86603 0 0 0
4 0.00000 0.00000 2.73205 0 0 0
5 0.00000 -0.50000 3.59808 0 0 0
6 0.00000 0.00000 4.46410 0 0 0
7 0.00000 -0.50000 5.33013 0 0 0
8 0.00000 0.00000 6.19615 0 0 0
9 0.00000 -0.50000 7.06218 0 0 0
10 0.00000 0.00000 7.92820 0 0 0
11 0.00000 -0.50000 8.79423 0 0 0
12 0.00000 0.00000 9.66025 0 0 0
13 0.00000 -0.50000 10.52628 0 0 0
14 0.00000 0.00000 11.39230 0 0 0
15 0.00000 -0.50000 12.25833 0 0 0
16 0.00000 0.00000 13.12436 0 0 0
17 0.00000 -0.50000 13.99038 0 0 0
18 0.00000 0.00000 14.85641 0 0 0
19 0.00000 -0.50000 15.72243 0 0 0
20 0.00000 0.00000 16.58846 0 0 0
21 0.00000 -0.50000 17.45448 0 0 0
22 0.00000 0.00000 18.32051 0 0 0
23 0.00000 -0.50000 19.18653 0 0 0
24 0.00000 0.00000 20.05256 0 0 0
25 0.00000 -0.50000 20.91858 0 0 0
26 0.00000 0.00000 21.78461 0 0 0
27 0.00000 -0.50000 22.65064 0 0 0
28 0.00000 0.00000 23.51666 0 0 0
29 0.00000 -0.50000 24.38269 0 0 0
30 0.00000 0.00000 25.24871 0 0 0
31 0.00000 -0.50000 26.11474 0 0 0
32 0.00000 0.00000 26.98076 0 0 0
33 0.00000 -0.50000 27.84679 0 0 0
34 0.00000 0.00000 28.71281 0 0 0
35 0.00000 -0.50000 29.57884 0 0 0
36 0.00000 0.00000 30.44486 0 0 0
37 0.00000 -0.50000 31.31089 0 0 0
38 0.00000 0.00000 32.17691 0 0 0
39 0.00000 -0.50000 33.04294 0 0 0
40 0.00000 0.00000 33.90897 0 0 0
41 0.00000 -0.50000 34.77499 0 0 0
42 0.00000 0.00000 35.64102 0 0 0
43 0.00000 -0.50000 36.50704 0 0 0
44 0.00000 0.00000 37.37307 0 0 0
45 0.00000 -0.50000 38.23909 0 0 0
46 0.00000 0.00000 39.10512 0 0 0
47 0.00000 -0.50000 39.97114 0 0 0
48 0.00000 0.00000 40.83717 0 0 0
49 0.00000 -0.50000 41.70319 0 0 0
50 0.00000 0.00000 42.56922 0 0 0
51 0.00000 -0.50000 43.43524 0 0 0
52 0.00000 0.00000 44.30127 0 0 0
53 0.00000 -0.50000 45.16730 0 0 0
54 0.00000 0.00000 46.03332 0 0 0
55 0.00000 -0.50000 46.89935 0 0 0
56 0.00000 0.00000 47.76537 0 0 0
57 0.00000 -0.50000 48.63140 0 0 0
58 0.00000 0.00000 49.49742 0 0 0
59 0.00000 -0.50000 50.36345 0 0 0
60 0.00000 0.00000 51.22947 0 0 0
61 0.00000 -0.50000 52.09550 0 0 0
62 0.00000 0.00000 52.96152 0 0 0
63 0.00000 -0.50000 53.82755 0 0 0
64 0.00000 0.00000 54.69358 0 0 0
65 0.00000 -0.50000 55.55960 0 0 0
66 0.00000 0.00000 56.42563 0 0 0
67 0.00000 -0.50000 57.29165 0 0 0
68 0.00000 0.00000 58.15768 0 0 0
69 0.00000 -0.50000 59.02370 0 0 0
70 0.00000 0.00000 59.88973 0 0 0
71 0.00000 -0.50000 60.75575 0 0 0
72 0.00000 0.00000 61.62178 0 0 0
73 0.00000 -0.50000 62.48780 0 0 0
74 0.00000 0.00000 63.35383 0 0 0
75 0.00000 -0.50000 64.21985 0 0 0
76 0.00000 0.00000 65.08588 0 0 0
77 0.00000 -0.50000 65.95191 0 0 0
78 0.00000 0.00000 66.81793 0 0 0
79 0.00000 -0.50000 67.68396 0 0 0
80 0.00000 0.00000 68.54998 0 0 0
81 0.00000 -0.50000 69.41601 0 0 0
82 0.00000 0.00000 70.28203 0 0 0
83 0.00000 -0.50000 71.14806 0 0 0
84 0.00000 0.00000 72.01408 0 0 0
85 0.00000 -0.50000 72.88011 0 0 0
86 0.00000 0.00000 73.74613 0 0 0
87 0.00000 -0.50000 74.61216 0 0 0
88 0.00000 0.00000 75.47818 0 0 0
89 0.00000 -0.50000 76.34421 0 0 0
90 0.00000 0.00000 77.21024 0 0 0
91 0.00000 -0.50000 78.07626 0 0 0
92 0.00000 0.00000 78.94229 0 0 0
93 0.00000 -0.50000 79.80831 0 0 0
94 0.00000 0.00000 80.67434 0 0 0
95 0.00000 -0.50000 81.54036 0 0 0
96 0.00000 0.00000 82.40639 0 0 0
97 0.00000 -0.50000 83.27241 0 0 0
98 0.00000 0.00000 84.13844 0 0 0
99 0.00000 -0.50000 85.00446 0 0 0
100 0.00000 0.00000 85.87049 0 0 0
101 0.00000 -0.50000 86.73651 0 0 0
102 0.08448 -1.47997 86.55618 0 0 0
103 0.16896 -2.23848 85.91001 0 0 0
104 0.25344 -3.17733 86.24382 0 0 0
105 0.33792 -3.93584 85.59766 0 0 0
106 0.42240 -4.87468 85.93146 0 0 0
107 0.50689 -5.63319 85.28530 0 0 0
108 0.59137 -6.57204 85.61911 0 0 0
109 0.67585 -7.33055 84.97294 0 0 0
110 0.76033 -8.26940 85.30675 0 0 0
111 0.84481 -9.02791 84.66059 0 0 0
112 0.92929 -9.96676 84.99440 0 0 0
113 1.01377 -10.72527 84.34823 0 0 0
114 1.09825 -11.66412 84.68204 0 0 0
115 1.18273 -12.42262 84.03588 0 0 0
116 1.26721 -13.36147 84.36968 0 0 0
117 1.35169 -14.11998 83.72352 0 0 0
118 1.43617 -15.05883 84.05733 0 0 0
119 1.52066 -15.81734 83.41116 0 0 0
120 1.60514 -16.75619 83.74497 0 0 0
121 1.68962 -17.51470 83.09881 0 0 0
122 1.77410 -18.45355 83.43261 0 0 0
123 1.85858 -19.21205 82.78645 0 0 0
124 1.94306 -20.15090 83.12026 0 0 0
125 2.02754 -20.90941 82.47410 0 0 0
126 2.11202 -21.84826 82.80790 0 0 0
127 2.19650 -22.60677 82.16174 0 0 0
128 2.28098 -23.54562 82.49555 0 0 0
129 2.36546 -24.30413 81.84938 0 0 0
130 2.44994 -25.24298 82.18319 0 0 0
131 2.53443 -26.00148 81.53703 0 0 0
132 2.61891 -26.94033 81.87083 0 0 0
133 2.70339 -27.69884 81.22467 0 0 0
134 2.78787 -28.63769 81.55848 0 0 0
135 2.87235 -29.39620 80.91232 0 0 0
136 2.95683 -30.33505 81.24612 0 0 0
137 3.04131 -31.09356 80.59996 0 0 0
138 3.12579 -32.03241 80.93377 0 0 0
139 3.21027 -32.79091 80.28760 0 0 0
140 3.29475 -33.72976 80.62141 0 0 0
141 3.37923 -34.48827 79.97525 0 0 0
142 3.46372 -35.42712 80.30905 0 0 0
143 3.54820 -36.18563 79.66289 0 0 0
144 3.63268 -37.12448 79.99670 0 0 0
145 3.71716 -37.88299 79.35053 0 0 0
146 3.80164 -38.82184 79.68434 0 0 0
147 3.88612 -39.58035 79.03818 0 0 0
148 3.97060 -40.51919 79.37199 0 0 0
149 4.05508 -41.27770 78.72582 0 0 0
150 4.13956 -42.21655 79.05963 0 0 0
151 4.22404 -42.97506 78.41347 0 0 0
152 4.30852 -43.91391 78.74727 0 0 0
153 4.39300 -44.67242 78.10111 0 0 0
154 4.47749 -45.61127 78.43492 0 0 0
155 4.56197 -46.36978 77.78875 0 0 0
156 4.64645 -47.30862 78.12256 0 0 0
157 4.73093 -48.06713 77.47640 0 0 0
158 4.81541 -49.00598 77.81020 0 0 0
159 4.89989 -49.76449 77.16404 0 0 0
160 4.98437 -50.70334 77.49785 0 0 0
161 5.06885 -51.46185 76.85169 0 0 0
162 5.15333 -52.40070 77.18549 0 0 0
163 5.23781 -53.15921 76.53933 0 0 0
164 5.32229 -54.09805 76.87314 0 0 0
165 5.40677 -54.85656 76.22697 0 0 0
166 5.49126 -55.79541 76.56078 0 0 0
167 5.57574 -56.55392 75.91462 0 0 0
168 5.66022 -57.49277 76.24842 0 0 0
169 5.74470 -58.25128 75.60226 0 0 0
170 5.82918 -59.19013 75.93607 0 0 0
171 5.91366 -59.94864 75.28991 0 0 0
172 5.99814 -60.88748 75.62371 0 0 0
173 6.08262 -61.64599 74.97755 0 0 0
174 6.16710 -62.58484 75.31136 0 0 0
175 6.25158 -63.34335 74.66519 0 0 0
176 6.33606 -64.28220 74.99900 0 0 0
177 6.42055 -65.04071 74.35284 0 0 0
178 6.50503 -65.97956 74.68664 0 0 0
179 6.58951 -66.73807 74.04048 0 0 0
180 6.67399 -67.67691 74.37429 0 0 0
181 6.75847 -68.43542 73.72812 0 0 0
182 6.84295 -69.37427 74.06193 0 0 0
183 6.92743 -70.13278 73.41577 0 0 0
184 7.01191 -71.07163 73.74958 0 0 0
185 7.09639 -71.83014 73.10341 0 0 0
186 7.18087 -72.76899 73.43722 0 0 0
187 7.26535 -73.52750 72.79106 0 0 0
188 7.34983 -74.46634 73.12486 0 0 0
189 7.43432 -75.22485 72.47870 0 0 0
190 7.51880 -76.16370 72.81251 0 0 0
191 7.60328 -76.92221 72.16634 0 0 0
192 7.68776 -77.86106 72.50015 0 0 0
193 7.77224 -78.61957 71.85399 0 0 0
194 7.85672 -79.55842 72.18779 0 0 0
195 7.94120 -80.31693 71.54163 0 0 0
196 8.02568 -81.25577 71.87544 0 0 0
197 8.11016 -82.01428 71.22928 0 0 0
198 8.19464 -82.95313 71.56308 0 0 0
199 8.27912 -83.71164 70.91692 0 0 0
200 8.36360 -84.65049 71.25073 0 0 0
201 8.44809 -85.40900 70.60456 0 0 0
202 -0.85531 -0.32373 87.22373 0 0 0
203 -1.71061 -0.41469 87.73381 0 0 0
204 -2.56592 -0.01842 88.06761 0 0 0
205 -3.42123 -0.10938 88.57769 0 0 0
206 -4.27653 0.28688 88.91150 0 0 0
207 -5.13184 0.19593 89.42157 0 0 0
208 -5.98715 0.59219 89.75538 0 0 0
209 -6.84245 0.50124 90.26546 0 0 0
210 -7.69776 0.89750 90.59926 0 0 0
211 -8.55307 0.80654 91.10934 0 0 0
212 -9.40838 1.20280 91.44315 0 0 0
213 -10.26368 1.11185 91.95322 0 0 0
214 -11.11899 1.50811 92.28703 0 0 0
215 -11.97430 1.41716 92.79710 0 0 0
216 -12.82960 1.81342 93.13091 0 0 0
217 -13.68491 1.72246 93.64099 0 0 0
218 -14.54022 2.11873 93.97479 0 0 0
219 -15.39552 2.02777 94.48487 0 0 0
220 -16.25083 2.42403 94.81868 0 0 0
221 -17.10614 2.33308 95.32875 0 0 0
222 -17.96144 2.72934 95.66256 0 0 0
223 -18.81675 2.63839 96.17264 0 0 0
224 -19.67206 3.03465 96.50644 0 0 0
225 -20.52736 2.94369 97.01652 0 0 0
226 -21.38267 3.33995 97.35033 0 0 0
227 -22.23798 3.24900 97.86040 0 0 0
228 -23.09328 3.64526 98.19421 0 0 0
229 -23.94859 3.55431 98.70428 0 0 0
230 -24.80390 3.95057 99.03809 0 0 0
231 -25.65920 3.85961 99.54817 0 0 0
232 -26.51451 4.25588 99.88197 0 0 0
233 -27.36982 4.16492 100.39205 0 0 0
234 -28.22513 4.56118 100.72586 0 0 0
235 -29.08043 4.47023 101.23593 0 0 0
236 -29.93574 4.86649 101.56974 0 0 0
237 -30.79105 4.77554 102.07982 0 0 0
238 -31.64635 5.17180 102.41362 0 0 0
239 -32.50166 5.08084 102.92370 0 0 0
240 -33.35697 5.47710 103.25751 0 0 0
241 -34.21227 5.38615 103.76758 0 0 0
242 -35.06758 5.78241 104.10139 0 0 0
243 -35.92289 5.69146 104.61146 0 0 0
244 -36.77819 6.08772 104.94527 0 0 0
245 -37.63350 5.99676 105.45535 0 0 0
246 -38.48881 6.39303 105.78915 0 0 0
247 -39.34411 6.30207 106.29923 0 0 0
248 -40.19942 6.69833 106.63304 0 0 0
249 -41.05473 6.60738 107.14311 0 0 0
250 -41.91003 7.00364 107.47692 0 0 0
251 -42.76534 6.91268 107.98700 0 0 0
252 -43.62065 7.30895 108.32080 0 0 0
253 -44.47596 7.21799 108.83088 0 0 0
254 -45.33126 7.61425 109.16468 0 0 0
255 -46.18657 7.52330 109.67476 0 0 0
256 -47.04188 7.91956 110.00857 0 0 0
257 -47.89718 7.82861 110.51864 0 0 0
258 -48.75249 8.22487 110.85245 0 0 0
259 -49.60780 8.13391 111.36253 0 0 0
260 -50.46310 8.53017 111.69633 0 0 0
261 -51.31841 8.43922 112.20641 0 0 0
262 -52.17372 8.83548 112.54022 0 0 0
263 -53.02902 8.74453 113.05029 0 0 0
264 -53.88433 9.14079 113.38410 0 0 0
265 -54.73964 9.04983 113.89418 0 0 0
266 -55.59494 9.44610 114.22798 0 0 0
267 -56.45025 9.35514 114.73806 0 0 0
268 -57.30556 9.75140 115.07186 0 0 0
269 -58.16086 9.66045 115.58194 0 0 0
270 -59.01617 10.05671 115.91575 0 0 0
271 -59.87148 9.96576 116.42582 0 0 0
272 -60.72678 10.36202 116.75963 0 0 0
273 -61.58209 10.27106 117.26971 0 0 0
274 -62.43740 10.66732 117.60351 0 0 0
275 -63.29271 10.57637 118.11359 0 0 0
276 -64.14801 10.97263 118.44740 0 0 0
277 -65.00332 10.88168 118.95747 0 0 0
278 -65.85863 11.27794 119.29128 0 0 0
279 -66.71393 11.18698 119.80136 0 0 0
280 -67.56924 11.58325 120.13516 0 0 0
281 -68.42455 11.49229 120.64524 0 0 0
282 -69.27985 11.88855 120.97904 0 0 0
283 -70.13516 11.79760 121.48912 0 0 0
284 -70.99047 12.19386 121.82293 0 0 0
285 -71.84577 12.10291 122.33300 0 0 0
286 -72.70108 12.49917 122.66681 0 0 0
287 -73.55639 12.40821 123.17689 0 0 0
288 -74.41169 12.80447 123.51069 0 0 0
289 -75.26700 12.71352 124.02077 0 0 0
290 -76.12231 13.10978 124.35458 0 0 0
291 -76.97761 13.01883 124.86465 0 0 0
292 -77.83292 13.41509 125.19846 0 0 0
293 -78.68823 13.32413 125.70854 0 0 0
294 -79.54354 13.72040 126.04234 0 0 0
295 -80.39884 13.62944 126.55242 0 0 0
296 -81.25415 14.02570 126.88622 0 0 0
297 -82.10946 13.93475 127.39630 0 0 0
298 -82.96476 14.33101 127.73011 0 0 0
299 -83.82007 14.24005 128.24018 0 0 0
300 -84.67538 14.63632 128.57399 0 0 0
301 -85.53068 14.54536 129.08407 0 0 0
302 0.77083 -0.19701 87.29689 0 0 0
303 1.54165 -0.21480 87.93369 0 0 0
304 2.31248 0.32779 88.26750 0 0 0
305 3.08330 0.30999 88.90429 0 0 0
306 3.85413 0.85258 89.23810 0 0 0
307 4.62496 0.83479 89.87490 0 0 0
308 5.39578 1.37737 90.20871 0 0 0
309 6.16661 1.35958 90.84550 0 0 0
310 6.93743 1.90217 91.17931 0 0 0
311 7.70826 1.88438 91.81611 0 0 0
312 8.47909 2.42696 92.14991 0 0 0
313 9.24991 2.40917 92.78671 0 0 0
314 10.02074 2.95176 93.12052 0 0 0
315 10.79156 2.93397 93.75732 0 0 0
316 11.56239 3.47655 94.09112 0 0 0
317 12.33322 3.45876 94.72792 0 0 0
318 13.10404 4.00135 95.06173 0 0 0
319 13.87487 3.98356 95.69852 0 0 0
320 14.64569 4.52614 96.03233 0 0 0
321 15.41652 4.50835 96.66913 0 0 0
322 16.18735 5.05094 97.00293 0 0 0
323 16.95817 5.03315 97.63973 0 0 0
324 17.72900 5.57573 97.97354 0 0 0
325 18.49982 5.55794 98.61034 0 0 0
326 19.27065 6.10053 98.94414 0 0 0
327 20.04148 6.08274 99.58094 0 0 0
328 20.81230 6.62532 99.91475 0 0 0
329 21.58313 6.60753 100.55154 0 0 0
330 22.35395 7.15012 100.88535 0 0 0
331 23.12478 7.13233 101.52215 0 0 0
332 23.89561 7.67491 101.85596 0 0 0
333 24.66643 7.65712 102.49275 0 0 0
334 25.43726 8.19971 102.82656 0 0 0
335 26.20808 8.18192 103.46336 0 0 0
336 26.97891 8.72450 103.79716 0 0 0
337 27.74974 8.70671 104.43396 0 0 0
338 28.52056 9.24930 104.76777 0 0 0
339 29.29139 9.23150 105.40457 0 0 0
340 30.06221 9.77409 105.73837 0 0 0
341 30.83304 9.75630 106.37517 0 0 0
342 31.60386 10.29889 106.70898 0 0 0
343 32.37469 10.28109 107.34577 0 0 0
344 33.14552 10.82368 107.67958 0 0 0
345 33.91634 10.80589 108.31638 0 0 0
346 34.68717 11.34848 108.65018 0 0 0
347 35.45799 11.33068 109.28698 0 0 0
348 36.22882 11.87327 109.62079 0 0 0
349 36.99965 11.85548 110.25759 0 0 0
350 37.77047 12.39807 110.59139 0 0 0
351 38.54130 12.38027 111.22819 0 0 0
352 39.31212 12.92286 111.56200 0 0 0
353 40.08295 12.90507 112.19879 0 0 0
354 40.85378 13.44765 112.53260 0 0 0
355 41.62460 13.42986 113.16940 0 0 0
356 42.39543 13.97245 113.50321 0 0 0
357 43.16625 13.95466 114.14000 0 0 0
358 43.93708 14.49724 114.47381 0 0 0
359 44.70791 14.47945 115.11061 0 0 0
360 45.47873 15.02204 115.44441 0 0 0
361 46.24956 15.00425 116.08121 0 0 0
362 47.02038 15.54683 116.41502 0 0 0
363 47.79121 15.52904 117.05181 0 0 0
364 48.56204 16.07163 117.38562 0 0 0
365 49.33286 16.05384 118.02242 0 0 0
366 50.10369 16.59642 118.35623 0 0 0
367 50.87451 16.57863 118.99302 0 0 0
368 51.64534 17.12122 119.32683 0 0 0
369 52.41617 17.10343 119.96363 0 0 0
370 53.18699 17.64601 120.29743 0 0 0
371 53.95782 17.62822 120.93423 0 0 0
372 54.72864 18.17081 121.26804 0 0 0
373 55.49947 18.15302 121.90484 0 0 0
374 56.27030 18.69560 122.23864 0 0 0
375 57.04112 18.67781 122.87544 0 0 0
376 57.81195 19.22040 123.20925 0 0 0
377 58.58277 19.20261 123.84604 0 0 0
378 59.35360 19.74519 124.17985 0 0 0
379 60.12443 19.72740 124.81665 0 0 0
380 60.89525 20.26999 125.15045 0 0 0
381 61.66608 20.25220 125.78725 0 0 0
382 62.43690 20.79478 126.12106 0 0 0
383 63.20773 20.77699 126.75786 0 0 0
384 63.97856 21.31958 127.09166 0 0 0
385 64.74938 21.30178 127.72846 0 0 0
386 65.52021 21.84437 128.06227 0 0 0
387 66.29103 21.82658 128.69906 0 0 0
388 67.06186 22.36917 129.03287 0 0 0
389 67.83269 22.35137 129.66967 0 0 0
390 68.60351 22.89396 130.00348 0 0 0
391 69.37434 22.87617 130.64027 0 0 0
392 70.14516 23.41876 130.97408 0 0 0
393 70.91599 23.40096 131.61088 0 0 0
394 71.68682 23.94355 131.94468 0 0 0
395 72.45764 23.92576 132.58148 0 0 0
396 73.22847 24.46835 132.91529 0 0 0
397 73.99929 24.45055 133.55209 0 0 0
398 74.77012 24.99314 133.88589 0 0 0
399 75.54095 24.97535 134.52269 0 0 0
400 76.31177 25.51794 134.85650 0 0 0
401 77.08260 25.50014 135.49329 0 0 0
ITEM: TIMESTEP
1000
ITEM: NUMBER OF ATOMS
401
ITEM: BOX BOUNDS pp pp pp
-1.0000000000000000e+03 1.0000000000000000e+03
-1.0000000000000000e+03 1.0000000000000000e+03
-1.0000000000000000e+03 1.0000000000000000e+03
ITEM: ATOMS id x y z ix iy iz
1 3.06878 0.34628 2.26195 0 0 0
2 2.48633 0.04853 3.02158 0 0 0
3 2.53323 0.20832 3.97442 0 0 0
4 1.83236 0.46694 4.69247 0 0 0
5 1.81108 -0.48859 5.02699 0 0 0
6 1.59626 -1.00499 5.84567 0 0 0
7 1.19593 -1.21410 6.77200 0 0 0
8 0.85298 -1.18449 7.69807 0 0 0
9 0.98510 -0.85214 8.58640 0 0 0
10 1.35522 -1.68807 8.93440 0 0 0
11 1.06683 -1.22372 9.73348 0 0 0
12 1.75797 -0.99335 10.31910 0 0 0
13 1.49528 -0.85185 11.22078 0 0 0
14 1.56837 -0.07290 11.83914 0 0 0
15 1.02358 -0.06766 12.65320 0 0 0
16 0.87723 0.15701 13.64785 0 0 0
17 1.03609 0.37419 14.55150 0 0 0
18 1.08964 0.58314 15.50177 0 0 0
19 0.72356 0.77890 16.38551 0 0 0
20 0.43162 0.96275 17.28549 0 0 0
21 0.75435 1.77579 17.93967 0 0 0
22 0.78795 1.71702 18.90558 0 0 0
23 0.60358 1.76593 19.90850 0 0 0
24 0.58471 2.17407 20.73837 0 0 0
25 0.94300 1.94592 21.59120 0 0 0
26 1.61621 1.69119 22.29581 0 0 0
27 1.64222 1.31635 23.19501 0 0 0
28 1.65685 1.72956 24.05643 0 0 0
29 1.46362 1.66118 25.01487 0 0 0
30 1.17501 1.99789 25.89568 0 0 0
31 1.32944 1.95329 26.86142 0 0 0
32 0.99124 2.15844 27.74961 0 0 0
33 1.21207 2.29059 28.74456 0 0 0
34 1.57245 2.32569 29.69443 0 0 0
35 1.34936 1.83455 30.55312 0 0 0
36 1.53642 1.97792 31.50276 0 0 0
37 0.62778 1.83006 31.75958 0 0 0
38 0.99367 1.08169 32.17411 0 0 0
39 0.65746 0.82538 33.06782 0 0 0
40 0.49323 0.25853 33.95561 0 0 0
41 0.85789 -0.04003 34.79479 0 0 0
42 1.74361 -0.11761 35.17174 0 0 0
43 1.81493 0.26287 36.09999 0 0 0
44 1.68531 0.09438 37.01424 0 0 0
45 1.62797 -0.30451 37.98589 0 0 0
46 1.84533 -0.45726 38.96173 0 0 0
47 2.07989 -1.22140 39.59175 0 0 0
48 1.96715 -1.48911 40.48432 0 0 0
49 1.70796 -1.82446 41.45052 0 0 0
50 1.41033 -2.32171 42.25027 0 0 0
51 1.04156 -1.80298 43.08919 0 0 0
52 1.16726 -1.56625 43.99110 0 0 0
53 1.36524 -1.72636 44.94693 0 0 0
54 1.00987 -2.04507 45.98974 0 0 0
55 0.61074 -1.76895 46.97906 0 0 0
56 0.78074 -1.96547 47.90305 0 0 0
57 1.15679 -2.16433 48.76834 0 0 0
58 1.37170 -1.90814 49.71048 0 0 0
59 1.51675 -2.01368 50.68151 0 0 0
60 1.17825 -2.08908 51.69822 0 0 0
61 1.61030 -1.85418 52.50824 0 0 0
62 2.10783 -1.96215 53.35441 0 0 0
63 1.96044 -2.05042 54.39754 0 0 0
64 1.89683 -2.10724 55.34776 0 0 0
65 1.94798 -1.40015 56.14122 0 0 0
66 2.09632 -0.65949 56.79749 0 0 0
67 1.54324 -0.72240 57.59095 0 0 0
68 1.36471 -1.40076 58.33148 0 0 0
69 0.88893 -1.38242 59.24164 0 0 0
70 1.09022 -0.66658 59.83453 0 0 0
71 1.25471 -0.40267 60.83960 0 0 0
72 0.99232 0.02138 61.66755 0 0 0
73 0.91354 -0.18408 62.64987 0 0 0
74 0.64834 -0.31358 63.55735 0 0 0
75 0.77949 -0.32906 64.50282 0 0 0
76 0.80843 -0.71376 65.44120 0 0 0
77 1.18770 -1.08186 66.30613 0 0 0
78 1.93439 -1.26787 67.01026 0 0 0
79 1.94827 -1.39840 67.96560 0 0 0
80 1.52853 -1.65399 68.84670 0 0 0
81 1.47644 -1.31403 69.79940 0 0 0
82 1.58242 -0.57171 70.43262 0 0 0
83 1.18839 -0.84913 71.34256 0 0 0
84 0.64956 -0.89274 72.12705 0 0 0
85 0.37041 -1.16371 73.06572 0 0 0
86 0.39967 -0.85706 74.00304 0 0 0
87 0.01542 -1.11588 74.93794 0 0 0
88 -0.51813 -0.93801 75.74249 0 0 0
89 -0.07156 -1.06730 76.52443 0 0 0
90 0.12882 -1.03950 77.44816 0 0 0
91 0.51245 -0.78181 78.44052 0 0 0
92 0.69467 -0.63971 79.37675 0 0 0
93 0.34628 -0.97930 80.25680 0 0 0
94 0.02674 -0.85991 81.19752 0 0 0
95 -0.34314 -0.78929 82.18392 0 0 0
96 -0.53961 -0.96142 83.13120 0 0 0
97 -0.62139 -0.66380 84.18141 0 0 0
98 -0.53695 -0.07737 85.02985 0 0 0
99 -0.11555 0.34533 85.79604 0 0 0
100 -0.11002 0.44785 86.83895 0 0 0
101 -0.30197 0.67668 87.76793 0 0 0
102 -0.08827 -0.30658 87.86717 0 0 0
103 0.20122 -1.28479 87.51373 0 0 0
104 0.13150 -2.27477 87.48006 0 0 0
105 -0.08457 -3.18721 87.14382 0 0 0
106 -0.44662 -4.01528 86.79736 0 0 0
107 -0.52857 -5.03917 86.66311 0 0 0
108 0.11084 -5.74889 86.44437 0 0 0
109 0.35415 -6.31102 85.70326 0 0 0
110 0.09142 -7.12811 85.29064 0 0 0
111 -0.13321 -7.91993 84.74394 0 0 0
112 -0.12652 -8.74156 84.29998 0 0 0
113 0.16380 -9.81040 84.17806 0 0 0
114 0.49822 -10.82321 83.86621 0 0 0
115 0.42527 -11.54459 83.20768 0 0 0
116 0.28347 -12.47140 83.43431 0 0 0
117 0.34103 -13.43144 82.81392 0 0 0
118 0.48706 -14.41343 82.80640 0 0 0
119 0.23088 -15.40868 82.83717 0 0 0
120 0.49653 -16.17171 82.25918 0 0 0
121 0.63024 -17.10470 82.56093 0 0 0
122 0.86695 -17.98180 82.81182 0 0 0
123 1.23888 -18.83425 82.37477 0 0 0
124 1.33488 -19.77140 82.00267 0 0 0
125 1.55227 -20.63095 81.67569 0 0 0
126 1.96880 -21.43596 81.45123 0 0 0
127 1.82151 -22.43743 81.40950 0 0 0
128 1.88593 -23.37324 81.48073 0 0 0
129 1.88904 -24.36130 81.41370 0 0 0
130 2.34738 -25.07058 80.78987 0 0 0
131 2.67309 -25.92177 80.29526 0 0 0
132 3.11312 -26.87321 80.06012 0 0 0
133 3.52006 -27.60158 79.53914 0 0 0
134 4.22527 -28.37074 79.48963 0 0 0
135 3.79430 -29.45809 79.34221 0 0 0
136 3.55984 -30.35266 79.46535 0 0 0
137 3.73140 -31.23004 79.91057 0 0 0
138 4.05838 -32.14929 79.92793 0 0 0
139 3.84585 -33.03339 80.01691 0 0 0
140 3.80790 -33.97031 80.02753 0 0 0
141 3.72387 -34.71355 79.39206 0 0 0
142 3.37917 -35.54211 79.01716 0 0 0
143 2.72009 -36.11276 78.57787 0 0 0
144 2.42123 -37.08589 78.61075 0 0 0
145 2.74090 -38.05260 78.65248 0 0 0
146 3.40550 -38.72877 78.46837 0 0 0
147 3.59333 -39.65765 78.90261 0 0 0
148 3.69681 -40.67572 78.47815 0 0 0
149 3.62074 -41.65646 78.55859 0 0 0
150 3.62533 -42.62020 78.53244 0 0 0
151 4.17205 -43.38939 78.40211 0 0 0
152 4.21246 -44.32716 78.67943 0 0 0
153 4.54962 -45.22552 78.62494 0 0 0
154 4.55755 -46.22460 78.84637 0 0 0
155 5.38913 -46.76459 79.04654 0 0 0
156 5.27601 -47.69632 78.57467 0 0 0
157 5.77821 -48.48724 78.10376 0 0 0
158 5.64116 -49.13097 78.80811 0 0 0
159 5.84916 -50.07177 78.73133 0 0 0
160 6.13944 -51.00887 78.41614 0 0 0
161 5.91335 -51.89417 78.15250 0 0 0
162 5.93584 -52.64261 77.45387 0 0 0
163 5.98703 -53.42769 76.84975 0 0 0
164 5.73024 -54.29483 76.50810 0 0 0
165 4.98818 -54.94492 76.38443 0 0 0
166 5.13753 -55.71450 75.89167 0 0 0
167 4.60320 -56.41198 75.44319 0 0 0
168 4.22637 -57.28413 75.16184 0 0 0
169 4.85546 -58.03955 75.37403 0 0 0
170 4.48855 -59.06928 75.19482 0 0 0
171 4.72567 -59.98612 75.01956 0 0 0
172 5.37025 -60.77852 75.11899 0 0 0
173 5.63118 -61.42884 74.43926 0 0 0
174 5.52737 -62.41147 74.42748 0 0 0
175 5.57640 -63.41369 74.32881 0 0 0
176 4.84082 -64.13777 74.33674 0 0 0
177 5.39432 -64.97074 74.52353 0 0 0
178 5.13053 -65.83611 74.78094 0 0 0
179 5.12270 -66.60718 75.34729 0 0 0
180 5.10733 -67.31942 76.04946 0 0 0
181 4.97161 -68.22584 75.67817 0 0 0
182 4.63435 -69.07145 75.30081 0 0 0
183 5.48668 -69.45822 74.94717 0 0 0
184 5.66764 -70.34904 74.78669 0 0 0
185 5.67463 -71.31664 74.46993 0 0 0
186 5.10583 -71.89534 73.94304 0 0 0
187 4.69037 -72.63631 73.45765 0 0 0
188 5.11881 -73.60781 73.44641 0 0 0
189 5.76803 -74.41195 73.40392 0 0 0
190 6.19153 -75.30398 73.45181 0 0 0
191 6.47914 -76.25372 73.75319 0 0 0
192 6.22521 -77.12022 73.31847 0 0 0
193 6.71989 -77.44724 72.54628 0 0 0
194 6.64002 -78.44800 72.43171 0 0 0
195 6.49481 -79.17843 71.86059 0 0 0
196 6.05289 -79.48890 71.03138 0 0 0
197 6.61576 -80.15639 71.43424 0 0 0
198 6.99860 -80.87218 72.08322 0 0 0
199 6.18430 -80.73278 72.59604 0 0 0
200 5.90119 -81.33216 73.31043 0 0 0
201 5.38305 -82.13037 73.57305 0 0 0
202 -1.31171 0.47850 87.93803 0 0 0
203 -2.25289 0.40018 88.27148 0 0 0
204 -3.18313 0.34263 88.53209 0 0 0
205 -4.02970 0.26986 89.02817 0 0 0
206 -4.72406 0.18376 89.74715 0 0 0
207 -5.37868 0.44358 90.38543 0 0 0
208 -6.32486 0.78093 90.68433 0 0 0
209 -7.14804 1.02040 91.17869 0 0 0
210 -8.00302 1.28471 91.58340 0 0 0
211 -8.61586 1.37852 92.35110 0 0 0
212 -9.42976 1.17074 92.76739 0 0 0
213 -10.18234 1.06024 93.32372 0 0 0
214 -10.92736 0.89209 93.91185 0 0 0
215 -11.63199 0.47511 94.48821 0 0 0
216 -12.42791 0.81078 94.98877 0 0 0
217 -13.28220 1.21003 95.29459 0 0 0
218 -14.16835 1.47576 95.65165 0 0 0
219 -14.97130 1.71326 96.23130 0 0 0
220 -15.85270 2.11501 96.34380 0 0 0
221 -16.16691 2.89644 97.00761 0 0 0
222 -16.99965 3.41358 97.08544 0 0 0
223 -17.90059 3.85569 97.19186 0 0 0
224 -18.84908 4.01565 97.39428 0 0 0
225 -19.80876 3.75721 97.66447 0 0 0
226 -20.75247 3.80524 97.95209 0 0 0
227 -21.69125 4.27256 98.26543 0 0 0
228 -22.71614 4.52738 98.27144 0 0 0
229 -23.54439 4.67812 98.77477 0 0 0
230 -24.29788 4.27341 99.26348 0 0 0
231 -25.03884 4.67601 99.90049 0 0 0
232 -25.92479 4.67352 100.19233 0 0 0
233 -26.88841 4.59529 100.19596 0 0 0
234 -27.79837 4.56718 100.67037 0 0 0
235 -28.35893 4.55609 101.47961 0 0 0
236 -29.13502 4.73834 102.01955 0 0 0
237 -29.96791 4.61619 102.60715 0 0 0
238 -30.96612 4.36445 102.90049 0 0 0
239 -32.01859 4.63001 102.93455 0 0 0
240 -32.83447 4.68692 103.33790 0 0 0
241 -33.60460 4.64205 103.92496 0 0 0
242 -34.43716 5.23080 104.22278 0 0 0
243 -35.38624 5.39640 104.70459 0 0 0
244 -36.23975 5.58746 105.32229 0 0 0
245 -37.08436 5.52365 105.79904 0 0 0
246 -37.88879 6.00092 106.26964 0 0 0
247 -38.45208 6.80958 106.52496 0 0 0
248 -39.40461 7.15403 106.62272 0 0 0
249 -40.38771 7.06538 106.97158 0 0 0
250 -41.31675 6.87429 107.39917 0 0 0
251 -42.15931 6.88223 107.91958 0 0 0
252 -43.03117 6.70417 108.29161 0 0 0
253 -43.79111 6.52245 108.82286 0 0 0
254 -44.42878 7.31653 109.11846 0 0 0
255 -45.44598 7.63472 109.14412 0 0 0
256 -46.34573 7.92236 109.48030 0 0 0
257 -47.15948 7.66897 110.07624 0 0 0
258 -48.19727 7.83662 110.16411 0 0 0
259 -48.84462 7.66255 110.81986 0 0 0
260 -49.76726 7.60206 111.10817 0 0 0
261 -50.52133 7.65061 111.79840 0 0 0
262 -51.33623 7.83404 112.28474 0 0 0
263 -52.15806 8.47774 112.27368 0 0 0
264 -53.08403 8.61670 112.64057 0 0 0
265 -53.75491 8.67065 113.30356 0 0 0
266 -54.74097 8.74535 113.39383 0 0 0
267 -55.53742 8.44032 113.93342 0 0 0
268 -56.37747 8.70385 114.54689 0 0 0
269 -57.20287 9.15516 114.63059 0 0 0
270 -57.78957 9.75433 115.05084 0 0 0
271 -58.69970 10.16721 115.30428 0 0 0
272 -59.61333 10.06942 115.52916 0 0 0
273 -60.60596 10.10078 115.79990 0 0 0
274 -61.48906 9.78194 115.93149 0 0 0
275 -62.24969 9.59332 116.45973 0 0 0
276 -62.63237 10.01661 117.22847 0 0 0
277 -63.49983 9.88933 117.73732 0 0 0
278 -64.18618 9.63750 118.34227 0 0 0
279 -64.78753 10.06013 118.97186 0 0 0
280 -65.75634 10.23326 119.02958 0 0 0
281 -66.60340 10.44100 119.58544 0 0 0
282 -67.36306 10.96402 119.82961 0 0 0
283 -67.94445 10.70943 120.62773 0 0 0
284 -68.84121 10.53137 121.07753 0 0 0
285 -69.62027 10.04573 120.84093 0 0 0
286 -70.44296 10.10735 121.43659 0 0 0
287 -70.89104 10.81563 121.77566 0 0 0
288 -71.65504 11.43306 121.78692 0 0 0
289 -72.58636 11.77714 121.73985 0 0 0
290 -73.17167 12.17304 122.40556 0 0 0
291 -73.86689 12.30156 123.15454 0 0 0
292 -74.29729 12.05195 124.03704 0 0 0
293 -75.09982 12.29933 124.68954 0 0 0
294 -75.57434 12.22483 125.57838 0 0 0
295 -76.24675 12.57513 126.21270 0 0 0
296 -77.10886 12.39938 126.63047 0 0 0
297 -77.87889 12.62340 127.22502 0 0 0
298 -78.12005 13.46817 127.62846 0 0 0
299 -78.52137 14.27154 128.06669 0 0 0
300 -79.27447 14.14776 128.67342 0 0 0
301 -79.86960 14.97353 128.62309 0 0 0
302 0.36373 0.98356 88.47706 0 0 0
303 1.20476 1.15605 88.95130 0 0 0
304 1.87804 1.64987 89.54864 0 0 0
305 2.31942 2.55098 89.62386 0 0 0
306 3.19397 2.91335 89.96945 0 0 0
307 3.94664 3.22399 90.49062 0 0 0
308 4.38989 3.05739 91.29780 0 0 0
309 5.19447 3.52673 91.51834 0 0 0
310 5.94440 3.56687 92.25785 0 0 0
311 6.85668 3.53023 92.79357 0 0 0
312 7.74464 3.17131 92.89993 0 0 0
313 8.36827 3.90641 93.10094 0 0 0
314 8.96126 4.01009 93.83500 0 0 0
315 9.75659 4.05455 94.47875 0 0 0
316 10.60713 4.17230 94.88352 0 0 0
317 11.58206 4.15611 95.17974 0 0 0
318 12.18630 4.38275 95.88600 0 0 0
319 13.21104 4.19382 95.76605 0 0 0
320 14.12537 4.08204 96.23301 0 0 0
321 14.87552 4.54700 96.66567 0 0 0
322 15.72108 4.26703 97.13700 0 0 0
323 16.46164 4.80807 97.67934 0 0 0
324 16.98420 5.11688 98.54164 0 0 0
325 17.69513 5.47606 99.19506 0 0 0
326 18.65376 5.66538 99.37380 0 0 0
327 19.55965 5.98757 99.60999 0 0 0
328 20.21172 6.62509 100.06889 0 0 0
329 20.72888 7.23238 100.60880 0 0 0
330 21.44487 6.99944 101.25103 0 0 0
331 22.32629 7.05873 101.73409 0 0 0
332 22.98370 7.26239 102.43320 0 0 0
333 23.38283 7.84599 103.17636 0 0 0
334 24.28614 8.23589 103.37777 0 0 0
335 25.18321 8.55720 103.60405 0 0 0
336 26.19989 8.69172 103.85848 0 0 0
337 26.93253 9.14086 104.46645 0 0 0
338 27.92436 9.16625 104.83346 0 0 0
339 28.90515 9.00345 105.26377 0 0 0
340 29.48408 9.51687 105.83981 0 0 0
341 30.38955 9.65419 106.30491 0 0 0
342 31.24319 9.68162 106.86634 0 0 0
343 32.11788 9.89706 107.20620 0 0 0
344 33.02291 10.16373 107.87648 0 0 0
345 33.91062 10.42155 108.38142 0 0 0
346 34.64767 10.54633 109.04348 0 0 0
347 35.66202 10.62455 109.14645 0 0 0
348 36.39472 10.75723 109.77057 0 0 0
349 37.34015 10.84507 110.21845 0 0 0
350 37.75588 11.25719 110.93518 0 0 0
351 38.34564 11.39467 111.75227 0 0 0
352 39.08856 11.94669 112.24333 0 0 0
353 39.96533 12.28278 112.55713 0 0 0
354 40.66794 12.72644 112.99969 0 0 0
355 41.63598 12.51248 113.05362 0 0 0
356 42.40401 12.84295 113.54244 0 0 0
357 43.33073 12.70776 114.04984 0 0 0
358 44.26817 13.02557 113.81126 0 0 0
359 45.02361 13.49841 114.01254 0 0 0
360 45.85018 13.88569 114.32146 0 0 0
361 46.86825 14.04913 114.54027 0 0 0
362 47.72147 14.22080 114.85871 0 0 0
363 48.15697 14.20030 115.82278 0 0 0
364 48.95384 14.57047 116.31616 0 0 0
365 49.51184 14.75278 117.13061 0 0 0
366 49.99627 15.14360 117.87293 0 0 0
367 50.53454 15.23807 118.82368 0 0 0
368 51.26494 15.09801 119.47670 0 0 0
369 51.90366 15.17129 120.27349 0 0 0
370 52.40991 15.86608 120.92809 0 0 0
371 52.71865 16.76362 120.82075 0 0 0
372 53.42189 17.29333 121.17278 0 0 0
373 53.80486 17.84867 121.87351 0 0 0
374 54.61108 18.10635 122.34728 0 0 0
375 55.32289 18.40536 123.04079 0 0 0
376 56.12754 18.78531 123.39385 0 0 0
377 56.97705 18.93494 123.79245 0 0 0
378 57.48010 19.02909 124.67525 0 0 0
379 57.95493 19.35850 125.44936 0 0 0
380 58.88440 19.62223 125.83126 0 0 0
381 59.58042 19.66655 126.43545 0 0 0
382 60.05048 20.21226 127.25139 0 0 0
383 60.77910 19.96308 127.85988 0 0 0
384 61.64147 20.33593 128.15962 0 0 0
385 62.62189 20.33607 127.98773 0 0 0
386 62.88509 20.99996 128.70677 0 0 0
387 63.52529 21.70832 128.65993 0 0 0
388 63.96034 22.57803 128.74237 0 0 0
389 64.66011 23.19268 129.00361 0 0 0
390 65.34441 23.04590 129.65626 0 0 0
391 65.91662 22.77039 130.37102 0 0 0
392 66.91411 22.61063 130.17431 0 0 0
393 67.47640 23.22573 130.68399 0 0 0
394 68.26207 23.62563 131.25952 0 0 0
395 69.07146 23.93916 130.75656 0 0 0
396 69.64914 23.18665 130.66966 0 0 0
397 70.40137 23.72264 130.76349 0 0 0
398 71.29677 23.90452 131.43366 0 0 0
399 71.57278 24.09779 132.28949 0 0 0
400 72.17175 23.38979 132.42475 0 0 0
401 71.56397 22.73958 132.26325 0 0 0
ITEM: TIMESTEP
2000
ITEM: NUMBER OF ATOMS
401
ITEM: BOX BOUNDS pp pp pp
-1.0000000000000000e+03 1.0000000000000000e+03