ITEM: TIMESTEP
0
ITEM: NUMBER OF ATOMS
293
ITEM: BOX BOUNDS pp pp pp
-1.0000000000000000e+03 1.0000000000000000e+03
-1.0000000000000000e+03 1.0000000000000000e+03
-1.0000000000000000e+03 1.0000000000000000e+03
ITEM: ATOMS id x y z ix iy iz
1 0.00000 0.00000 0.00000 0 0 0
2 0.00000 0.00000 1.00000 0 0 0
3 0.00000 -0.50000 1.86603 0 0 0
4 0.00000 0.00000 2.73205 0 0 0
5 0.00000 -0.50000 3.59808 0 0 0
6 0.00000 0.00000 4.46410 0 0 0
7 0.00000 -0.50000 5.33013 0 0 0
8 0.00000 0.00000 6.19615 0 0 0
9 0.00000 -0.50000 7.06218 0 0 0
10 0.00000 0.00000 7.92820 0 0 0
11 0.00000 -0.50000 8.79423 0 0 0
12 0.00000 0.00000 9.66025 0 0 0
13 0.00000 -0.50000 10.52628 0 0 0
14 0.00000 0.00000 11.39230 0 0 0
15 0.00000 -0.50000 12.25833 0 0 0
16 0.00000 0.00000 13.12436 0 0 0
17 0.00000 -0.50000 13.99038 0 0 0
18 0.00000 0.00000 14.85641 0 0 0
19 0.00000 -0.50000 15.72243 0 0 0
20 -0.21113 -1.46251 15.55217 0 0 0
21 -0.42227 -2.21095 14.92346 0 0 0
22 -0.63340 -3.12964 15.25727 0 0 0
23 -0.84454 -3.87807 14.62856 0 0 0
24 -1.05567 -4.79676 14.96237 0 0 0
25 -1.26680 -5.54519 14.33366 0 0 0
26 -1.47794 -6.46388 14.66747 0 0 0
27 -1.68907 -7.21232 14.03876 0 0 0
28 -1.90021 -8.13101 14.37257 0 0 0
29 -2.11134 -8.87944 13.74386 0 0 0
30 -2.32247 -9.79813 14.07767 0 0 0
31 -2.53361 -10.54656 13.44896 0 0 0
32 -2.74474 -11.46526 13.78277 0 0 0
33 -2.95588 -12.21369 13.15406 0 0 0
34 -3.16701 -13.13238 13.48787 0 0 0
35 -3.37815 -13.88081 12.85916 0 0 0
36 -3.58928 -14.79950 13.19297 0 0 0
37 -3.80041 -15.54793 12.56426 0 0 0
38 -0.69004 -0.11075 16.33261 0 0 0
39 -1.38009 -0.07874 17.05567 0 0 0
40 -2.07013 0.56346 17.38948 0 0 0
41 -2.76018 0.59547 18.11254 0 0 0
42 -3.45022 1.23766 18.44635 0 0 0
43 -4.14026 1.26967 19.16941 0 0 0
44 -4.83031 1.91187 19.50321 0 0 0
45 -5.52035 1.94388 20.22627 0 0 0
46 -6.21039 2.58607 20.56008 0 0 0
47 -6.90044 2.61808 21.28314 0 0 0
48 -7.59048 3.26028 21.61695 0 0 0
49 -8.28053 3.29229 22.34000 0 0 0
50 -8.97057 3.93448 22.67381 0 0 0
51 -9.66061 3.96649 23.39687 0 0 0
52 -10.35066 4.60869 23.73068 0 0 0
53 -11.04070 4.64070 24.45374 0 0 0
54 -11.73074 5.28289 24.78754 0 0 0
55 -12.42079 5.31491 25.51060 0 0 0
56 0.90118 -0.42745 16.14977 0 0 0
57 1.80236 -0.57828 16.55612 0 0 0
58 2.70353 -0.30179 16.88993 0 0 0
59 3.60471 -0.45262 17.29629 0 0 0
60 4.50589 -0.17612 17.63010 0 0 0
61 5.40707 -0.32696 18.03645 0 0 0
62 6.30824 -0.05046 18.37026 0 0 0
63 7.20942 -0.20130 18.77662 0 0 0
64 8.11060 0.07520 19.11043 0 0 0
65 9.01178 -0.07563 19.51679 0 0 0
66 9.91296 0.20087 19.85059 0 0 0
67 10.81413 0.05003 20.25695 0 0 0
68 11.71531 0.32653 20.59076 0 0 0
69 12.61649 0.17569 20.99712 0 0 0
70 13.51767 0.45219 21.33092 0 0 0
71 14.41885 0.30135 21.73728 0 0 0
72 15.32002 0.57785 22.07109 0 0 0
73 16.22120 0.42702 22.47745 0 0 0
74 17.12238 0.70352 22.81125 0 0 0
75 17.51805 -0.03610 23.35569 0 0 0
76 17.91372 -0.94884 23.45738 0 0 0
77 18.30940 -1.31715 24.29869 0 0 0
78 18.70507 -2.22989 24.40038 0 0 0
79 19.10074 -2.59819 25.24169 0 0 0
80 19.49641 -3.51094 25.34338 0 0 0
81 19.89209 -3.87924 26.18469 0 0 0
82 20.28776 -4.79199 26.28638 0 0 0
83 20.68343 -5.16029 27.12768 0 0 0
84 21.07910 -6.07304 27.22938 0 0 0
85 21.47478 -6.44134 28.07068 0 0 0
86 21.87045 -7.35408 28.17237 0 0 0
87 22.26612 -7.72239 29.01368 0 0 0
88 22.66179 -8.63513 29.11537 0 0 0
89 23.05747 -9.00344 29.95668 0 0 0
90 23.45314 -9.91618 30.05837 0 0 0
91 23.84881 -10.28449 30.89967 0 0 0
92 24.24448 -11.19723 31.00137 0 0 0
93 17.03159 1.52229 23.37815 0 0 0
94 16.94080 1.94792 24.27848 0 0 0
95 16.85002 2.94045 24.36003 0 0 0
96 16.75923 3.36608 25.26036 0 0 0
97 16.66844 4.35861 25.34192 0 0 0
98 16.57765 4.78424 26.24225 0 0 0
99 16.48687 5.77676 26.32380 0 0 0
100 16.39608 6.20240 27.22414 0 0 0
101 16.30529 7.19492 27.30569 0 0 0
102 16.21450 7.62055 28.20602 0 0 0
103 16.12372 8.61308 28.28758 0 0 0
104 16.03293 9.03871 29.18791 0 0 0
105 15.94214 10.03124 29.26946 0 0 0
106 15.85136 10.45687 30.16980 0 0 0
107 15.76057 11.44939 30.25135 0 0 0
108 15.66978 11.87503 31.15168 0 0 0
109 15.57899 12.86755 31.23324 0 0 0
110 15.48821 13.29319 32.13357 0 0 0
111 17.71995 0.90125 22.03420 0 0 0
112 18.31752 1.46101 21.46012 0 0 0
113 18.91510 1.24373 20.68831 0 0 0
114 19.51267 1.80349 20.11423 0 0 0
115 20.11024 1.58621 19.34242 0 0 0
116 20.70782 2.14597 18.76834 0 0 0
117 21.30539 1.92869 17.99652 0 0 0
118 21.90296 2.48846 17.42244 0 0 0
119 22.50054 2.27117 16.65063 0 0 0
120 23.09811 2.83094 16.07655 0 0 0
121 23.69568 2.61365 15.30474 0 0 0
122 24.29325 3.17342 14.73066 0 0 0
123 24.89083 2.95613 13.95885 0 0 0
124 25.48840 3.51590 13.38477 0 0 0
125 26.08597 3.29861 12.61295 0 0 0
126 26.68355 3.85838 12.03887 0 0 0
127 27.28112 3.64109 11.26706 0 0 0
128 27.87869 4.20086 10.69298 0 0 0
129 28.47627 3.98357 9.92117 0 0 0
130 28.20563 4.52660 9.12626 0 0 0
131 27.93499 5.39432 8.70935 0 0 0
132 27.66436 5.46714 7.74943 0 0 0
133 27.39372 6.33486 7.33253 0 0 0
134 27.12309 6.40768 6.37260 0 0 0
135 26.85245 7.27540 5.95570 0 0 0
136 26.58182 7.34822 4.99578 0 0 0
137 26.31118 8.21594 4.57887 0 0 0
138 26.04054 8.28876 3.61895 0 0 0
139 25.76991 9.15648 3.20205 0 0 0
140 25.49927 9.22930 2.24212 0 0 0
141 25.22864 10.09703 1.82522 0 0 0
142 24.95800 10.16984 0.86530 0 0 0
143 24.68737 11.03757 0.44839 0 0 0
144 24.41673 11.11038 -0.51153 0 0 0
145 24.14609 11.97811 -0.92843 0 0 0
146 23.87546 12.05092 -1.88836 0 0 0
147 23.60482 12.91865 -2.30526 0 0 0
148 28.39825 3.01099 9.70208 0 0 0
149 28.32024 2.27826 9.02605 0 0 0
150 28.24222 1.32644 9.32260 0 0 0
151 28.16421 0.59370 8.64657 0 0 0
152 28.08620 -0.35812 8.94312 0 0 0
153 28.00818 -1.09086 8.26709 0 0 0
154 27.93017 -2.04268 8.56364 0 0 0
155 27.85216 -2.77541 7.88761 0 0 0
156 27.77414 -3.72724 8.18416 0 0 0
157 27.69613 -4.45997 7.50813 0 0 0
158 27.61811 -5.41180 7.80468 0 0 0
159 27.54010 -6.14453 7.12865 0 0 0
160 27.46209 -7.09636 7.42520 0 0 0
161 27.38407 -7.82909 6.74917 0 0 0
162 27.30606 -8.78091 7.04572 0 0 0
163 27.22805 -9.51365 6.36969 0 0 0
164 27.15003 -10.46547 6.66624 0 0 0
165 27.07202 -11.19821 5.99021 0 0 0
166 29.42334 4.19554 10.16226 0 0 0
167 30.37041 4.25856 10.47704 0 0 0
168 31.31748 4.56267 10.57985 0 0 0
169 32.26455 4.62569 10.89463 0 0 0
170 33.21162 4.92981 10.99744 0 0 0
171 34.15869 4.99282 11.31222 0 0 0
172 35.10576 5.29694 11.41503 0 0 0
173 36.05283 5.35996 11.72981 0 0 0
174 36.99991 5.66407 11.83262 0 0 0
175 37.94698 5.72709 12.14740 0 0 0
176 38.89405 6.03121 12.25021 0 0 0
177 39.84112 6.09423 12.56499 0 0 0
178 40.78819 6.39834 12.66780 0 0 0
179 41.73526 6.46136 12.98258 0 0 0
180 42.68233 6.76547 13.08539 0 0 0
181 43.62940 6.82849 13.40017 0 0 0
182 44.57648 7.13261 13.50298 0 0 0
183 45.52355 7.19563 13.81776 0 0 0
184 46.47062 7.49974 13.92057 0 0 0
185 46.59010 8.38032 13.46198 0 0 0
186 46.70958 9.37222 13.50512 0 0 0
187 46.82907 9.90553 12.66768 0 0 0
188 46.94855 10.89743 12.71082 0 0 0
189 47.06803 11.43073 11.87338 0 0 0
190 47.18752 12.42263 11.91652 0 0 0
191 47.30700 12.95594 11.07908 0 0 0
192 47.42648 13.94784 11.12221 0 0 0
193 47.54596 14.48115 10.28477 0 0 0
194 47.66545 15.47305 10.32791 0 0 0
195 47.78493 16.00635 9.49047 0 0 0
196 47.90441 16.99825 9.53361 0 0 0
197 48.02390 17.53156 8.69617 0 0 0
198 48.14338 18.52346 8.73931 0 0 0
199 48.26286 19.05677 7.90187 0 0 0
200 48.38235 20.04867 7.94501 0 0 0
201 48.50183 20.58197 7.10757 0 0 0
202 48.62131 21.57387 7.15070 0 0 0
203 47.08427 6.82496 13.51058 0 0 0
204 47.69792 6.44557 12.81812 0 0 0
205 48.31157 5.65620 12.80044 0 0 0
206 48.92522 5.27681 12.10798 0 0 0
207 49.53888 4.48743 12.09031 0 0 0
208 50.15253 4.10805 11.39785 0 0 0
209 50.76618 3.31867 11.38017 0 0 0
210 51.37983 2.93929 10.68771 0 0 0
211 51.99348 2.14991 10.67003 0 0 0
212 52.60713 1.77053 9.97757 0 0 0
213 53.22078 0.98115 9.95990 0 0 0
214 53.83444 0.60177 9.26744 0 0 0
215 54.44809 -0.18761 9.24976 0 0 0
216 55.06174 -0.56700 8.55730 0 0 0
217 55.67539 -1.35637 8.53963 0 0 0
218 56.28904 -1.73576 7.84717 0 0 0
219 56.90269 -2.52514 7.82949 0 0 0
220 57.51634 -2.90452 7.13703 0 0 0
221 46.68590 7.59849 14.89212 0 0 0
222 46.90118 7.19824 15.78288 0 0 0
223 47.11646 7.76954 16.57489 0 0 0
224 47.33175 7.36929 17.46565 0 0 0
225 47.54703 7.94058 18.25765 0 0 0
226 47.76231 7.54033 19.14841 0 0 0
227 47.97759 8.11163 19.94042 0 0 0
228 48.19288 7.71138 20.83118 0 0 0
229 48.40816 8.28267 21.62319 0 0 0
230 48.62344 7.88242 22.51395 0 0 0
231 48.83872 8.45372 23.30595 0 0 0
232 49.05400 8.05347 24.19671 0 0 0
233 49.26929 8.62476 24.98872 0 0 0
234 49.48457 8.22451 25.87948 0 0 0
235 49.69985 8.79581 26.67149 0 0 0
236 49.91513 8.39556 27.56225 0 0 0
237 50.13041 8.96685 28.35425 0 0 0
238 50.34570 8.56660 29.24501 0 0 0
239 50.56098 9.13790 30.03702 0 0 0
240 49.72191 9.55622 30.38482 0 0 0
241 48.88283 9.74459 30.89519 0 0 0
242 48.04376 10.28076 30.98724 0 0 0
243 47.20468 10.46913 31.49760 0 0 0
244 46.36561 11.00531 31.58965 0 0 0
245 45.52654 11.19368 32.10001 0 0 0
246 44.68746 11.72985 32.19206 0 0 0
247 43.84839 11.91822 32.70242 0 0 0
248 43.00932 12.45440 32.79447 0 0 0
249 42.17024 12.64277 33.30483 0 0 0
250 41.33117 13.17894 33.39688 0 0 0
251 40.49210 13.36731 33.90725 0 0 0
252 39.65302 13.90349 33.99929 0 0 0
253 38.81395 14.09186 34.50966 0 0 0
254 37.97487 14.62803 34.60171 0 0 0
255 37.13580 14.81641 35.11207 0 0 0
256 36.29673 15.35258 35.20412 0 0 0
257 35.45765 15.54095 35.71448 0 0 0
258 51.20315 9.85516 29.76656 0 0 0
259 51.84533 10.61155 29.89096 0 0 0
260 52.48751 11.09749 29.29810 0 0 0
261 53.12968 11.85388 29.42250 0 0 0
262 53.77186 12.33982 28.82965 0 0 0
263 54.41403 13.09621 28.95405 0 0 0
264 55.05621 13.58214 28.36119 0 0 0
265 55.69839 14.33854 28.48559 0 0 0
266 56.34056 14.82447 27.89273 0 0 0
267 56.98274 15.58087 28.01713 0 0 0
268 57.62491 16.06680 27.42428 0 0 0
269 58.26709 16.82320 27.54868 0 0 0
270 58.90926 17.30913 26.95582 0 0 0
271 59.55144 18.06552 27.08022 0 0 0
272 60.19362 18.55146 26.48737 0 0 0
273 60.83579 19.30785 26.61177 0 0 0
274 61.47797 19.79379 26.01891 0 0 0
275 62.12014 20.55018 26.14331 0 0 0
276 50.97346 8.57443 30.75281 0 0 0
277 51.38595 7.72856 31.09097 0 0 0
278 51.79844 7.59848 31.99260 0 0 0
279 52.21092 6.75260 32.33076 0 0 0
280 52.62341 6.62252 33.23239 0 0 0
281 53.03589 5.77665 33.57055 0 0 0
282 53.44838 5.64657 34.47218 0 0 0
283 53.86087 4.80069 34.81034 0 0 0
284 54.27335 4.67061 35.71197 0 0 0
285 54.68584 3.82474 36.05013 0 0 0
286 55.09832 3.69465 36.95176 0 0 0
287 55.51081 2.84878 37.28992 0 0 0
288 55.92330 2.71870 38.19155 0 0 0
289 56.33578 1.87283 38.52971 0 0 0
290 56.74827 1.74274 39.43134 0 0 0
291 57.16075 0.89687 39.76950 0 0 0
292 57.57324 0.76679 40.67113 0 0 0
293 57.98573 -0.07909 41.00929 0 0 0
ITEM: TIMESTEP
1000
ITEM: NUMBER OF ATOMS
293
ITEM: BOX BOUNDS pp pp pp
-1.0000000000000000e+03 1.0000000000000000e+03
-1.0000000000000000e+03 1.0000000000000000e+03
-1.0000000000000000e+03 1.0000000000000000e+03
ITEM: ATOMS id x y z ix iy iz
1 -1.43209 2.19403 6.17172 0 0 0
2 -0.74501 2.28538 6.81574 0 0 0
3 -0.11092 2.75056 7.45878 0 0 0
4 -0.20836 1.98462 8.04035 0 0 0
5 -0.78849 1.41726 8.61120 0 0 0
6 -1.16676 1.02385 7.64551 0 0 0
7 -0.99159 -0.01250 7.86549 0 0 0
8 -0.52018 0.20973 8.75283 0 0 0
9 -0.08663 0.78036 9.46947 0 0 0
10 0.68534 0.43862 9.95443 0 0 0
11 1.26773 0.00512 10.63938 0 0 0
12 0.35845 0.12223 10.93193 0 0 0
13 -0.01604 -0.74916 10.80478 0 0 0
14 0.18144 -1.10470 11.66865 0 0 0
15 0.40056 -0.62753 12.61589 0 0 0
16 0.82837 -0.47591 13.47084 0 0 0
17 1.15415 -0.46046 14.34375 0 0 0
18 0.88533 -0.77208 15.22861 0 0 0
19 0.68190 -0.36275 16.04904 0 0 0
20 0.09824 -1.06101 16.15487 0 0 0
21 -0.76206 -1.55298 16.35145 0 0 0
22 -0.96443 -2.47229 16.37382 0 0 0
23 -1.64616 -3.12945 16.47631 0 0 0
24 -1.65024 -4.15686 16.34661 0 0 0
25 -1.43813 -4.59033 15.56070 0 0 0
26 -1.07329 -5.43340 15.92870 0 0 0
27 -0.32365 -5.53429 16.50530 0 0 0
28 -0.01372 -6.40431 16.10007 0 0 0
29 -0.71390 -7.08392 16.09881 0 0 0
30 -1.27265 -7.03231 15.27041 0 0 0
31 -1.25264 -8.00012 15.46935 0 0 0
32 -0.99475 -8.89343 15.68261 0 0 0
33 -0.74259 -9.48033 14.94710 0 0 0
34 -0.12673 -10.13832 14.74399 0 0 0
35 0.76159 -9.70759 14.86082 0 0 0
36 1.56578 -9.56706 15.40268 0 0 0
37 1.30494 -10.11211 16.23993 0 0 0
38 -0.07893 0.27808 16.07982 0 0 0
39 -0.53209 0.39902 16.97532 0 0 0
40 -1.03380 1.15598 16.70661 0 0 0
41 -1.74376 1.17078 17.33728 0 0 0
42 -2.40063 0.70137 18.06093 0 0 0
43 -3.13253 0.04079 18.56050 0 0 0
44 -3.99369 0.00327 18.94324 0 0 0
45 -4.55997 0.72827 19.20846 0 0 0
46 -5.25414 1.16762 19.76592 0 0 0
47 -6.20961 1.30763 19.89974 0 0 0
48 -6.61203 1.56548 20.81197 0 0 0
49 -7.27666 2.02120 21.52269 0 0 0
50 -7.47046 2.36808 22.45369 0 0 0
51 -8.07237 2.87221 23.10958 0 0 0
52 -7.50015 3.53899 22.74857 0 0 0
53 -7.80488 4.15819 23.45324 0 0 0
54 -7.66641 4.25874 24.46271 0 0 0
55 -8.48698 3.76153 24.57585 0 0 0
56 1.59578 -0.50296 16.56885 0 0 0
57 2.53511 -0.26379 16.63313 0 0 0
58 3.30823 -0.06323 17.25590 0 0 0
59 3.90199 0.35499 17.97582 0 0 0
60 4.80018 -0.13068 17.86375 0 0 0
61 5.70110 -0.31847 17.47997 0 0 0
62 6.45143 -0.70789 17.97747 0 0 0
63 7.31699 -1.07705 18.22949 0 0 0
64 7.84896 -0.54585 18.82666 0 0 0
65 8.69378 -0.40655 19.33373 0 0 0
66 9.60055 -0.14536 19.78014 0 0 0
67 10.55979 -0.27788 19.56185 0 0 0
68 11.06207 0.31406 20.09630 0 0 0
69 11.80661 0.17343 20.70455 0 0 0
70 12.76578 0.14382 20.88984 0 0 0
71 13.71251 0.14613 20.70562 0 0 0
72 14.61114 0.47399 20.45606 0 0 0
73 15.50750 0.38081 20.07916 0 0 0
74 16.47192 0.68766 20.03671 0 0 0
75 17.04777 -0.21203 19.75889 0 0 0
76 17.11852 -1.11135 19.99389 0 0 0
77 17.19516 -1.62373 20.78701 0 0 0
78 17.50939 -1.78972 21.68857 0 0 0
79 17.51543 -2.15093 22.60604 0 0 0
80 17.46804 -1.58254 23.55225 0 0 0
81 17.64989 -1.88562 24.44131 0 0 0
82 18.42153 -2.39153 24.68315 0 0 0
83 18.32589 -3.44696 24.70901 0 0 0
84 18.79138 -4.42386 24.78963 0 0 0
85 19.44993 -5.19551 24.52459 0 0 0
86 19.80523 -5.76626 25.28121 0 0 0
87 20.13443 -5.73893 26.21131 0 0 0
88 20.22626 -5.93323 27.15875 0 0 0
89 21.26862 -5.65593 26.95840 0 0 0
90 22.21848 -5.79106 27.21505 0 0 0
91 21.73462 -6.70441 27.21761 0 0 0
92 22.72182 -6.81224 27.28693 0 0 0
93 16.78725 1.08700 20.91861 0 0 0
94 16.94985 1.76902 21.66133 0 0 0
95 16.70287 2.72593 21.76955 0 0 0
96 16.20925 3.46434 22.21521 0 0 0
97 16.05071 2.97070 23.03680 0 0 0
98 16.38782 3.74156 23.58753 0 0 0
99 16.29153 4.28738 24.42332 0 0 0
100 16.14977 5.18390 24.80145 0 0 0
101 15.82938 5.34232 25.72852 0 0 0
102 15.00010 5.24471 26.14012 0 0 0
103 15.13193 5.93728 26.83990 0 0 0
104 14.34059 5.86534 27.44115 0 0 0
105 13.72520 6.63374 27.13353 0 0 0
106 13.05842 7.34027 27.24121 0 0 0
107 12.56912 7.82725 27.91042 0 0 0
108 13.35352 7.87482 28.41935 0 0 0
109 13.20599 8.78579 28.55095 0 0 0
110 12.73067 9.63858 28.38135 0 0 0
111 17.10787 0.82171 19.30049 0 0 0
112 17.77224 1.35861 18.68086 0 0 0
113 18.59204 1.79969 18.28165 0 0 0
114 19.41395 1.93023 17.90797 0 0 0
115 19.98464 2.63086 17.46972 0 0 0
116 20.85100 2.94309 16.94309 0 0 0
117 21.80622 2.86738 16.66045 0 0 0
118 22.72793 3.05020 16.28000 0 0 0
119 23.44950 3.64392 16.30885 0 0 0
120 23.87658 3.93178 15.38359 0 0 0
121 24.42305 3.91410 14.58236 0 0 0
122 25.28215 4.30570 14.12253 0 0 0
123 26.21627 4.66498 13.85447 0 0 0
124 26.76896 4.26979 13.08651 0 0 0
125 27.09462 3.97232 12.17531 0 0 0
126 27.94950 3.57279 11.96177 0 0 0
127 28.86550 3.47345 11.56276 0 0 0
128 29.71980 3.60161 11.06564 0 0 0
129 29.98745 3.96109 10.23500 0 0 0
130 29.39032 4.29365 9.46945 0 0 0
131 29.28118 4.31204 8.47772 0 0 0
132 28.43471 4.85406 8.77431 0 0 0
133 27.93711 4.87830 9.66226 0 0 0
134 27.23758 5.59248 9.39899 0 0 0
135 27.46654 5.90460 8.50808 0 0 0
136 28.31096 5.89640 7.97352 0 0 0
137 28.60350 6.35029 7.05096 0 0 0
138 28.20559 6.85607 6.26299 0 0 0
139 27.94655 7.10337 5.28121 0 0 0
140 27.68838 7.35012 4.28363 0 0 0
141 26.97282 6.86060 3.76181 0 0 0
142 26.94335 7.17284 2.81421 0 0 0
143 27.34730 7.51410 1.97444 0 0 0
144 27.43988 7.71982 1.02585 0 0 0
145 27.54108 8.00767 0.00607 0 0 0
146 26.66607 7.77958 -0.38475 0 0 0
147 25.83670 7.37923 -0.17590 0 0 0
148 30.11192 3.02811 9.99764 0 0 0
149 30.12976 2.11539 9.67027 0 0 0
150 31.08460 1.77944 9.51085 0 0 0
151 30.71837 0.83624 9.33369 0 0 0
152 30.17382 0.78160 8.55768 0 0 0
153 29.31815 0.28271 8.33166 0 0 0
154 29.76460 -0.54379 8.19095 0 0 0
155 28.99245 -0.86694 7.77570 0 0 0
156 28.18967 -1.47327 7.54029 0 0 0
157 27.25027 -1.83240 7.45456 0 0 0
158 26.69728 -2.64809 7.21588 0 0 0
159 25.96986 -3.17910 7.46908 0 0 0
160 25.79850 -3.28324 8.37136 0 0 0
161 24.96324 -3.62230 8.77246 0 0 0
162 24.17188 -4.22083 8.51478 0 0 0
163 24.26676 -4.61060 7.66319 0 0 0
164 23.78980 -5.37904 7.98543 0 0 0
165 23.32203 -5.07456 8.78077 0 0 0
166 30.90477 3.69681 10.40088 0 0 0
167 31.64164 3.74391 11.12935 0 0 0
168 32.33270 4.17543 11.64841 0 0 0
169 33.07240 4.77098 11.59846 0 0 0
170 34.08305 4.89008 11.61345 0 0 0
171 34.92478 5.12211 11.28667 0 0 0
172 35.85211 5.27527 11.70091 0 0 0
173 36.61030 5.81994 12.02723 0 0 0
174 36.93678 6.18185 12.90630 0 0 0
175 37.60735 6.88958 13.22659 0 0 0
176 38.32894 7.39284 13.68270 0 0 0
177 39.32666 7.46732 13.52815 0 0 0
178 40.22777 7.73746 13.49723 0 0 0
179 41.21617 7.68945 13.81979 0 0 0
180 42.08180 7.49596 14.28130 0 0 0
181 42.91506 8.03555 14.17143 0 0 0
182 43.88404 8.26698 14.12345 0 0 0
183 44.76736 8.13852 14.55678 0 0 0
184 45.71340 8.00206 14.47223 0 0 0
185 46.16070 8.79814 14.30153 0 0 0
186 46.63840 8.88754 13.43100 0 0 0
187 46.90420 9.63335 12.80362 0 0 0
188 46.50677 9.72482 11.89428 0 0 0
189 47.14545 10.21162 11.33836 0 0 0
190 48.11087 10.54046 11.32778 0 0 0
191 48.86899 11.01292 10.78574 0 0 0
192 48.53752 11.86954 11.02695 0 0 0
193 48.72408 12.77345 11.46563 0 0 0
194 48.18928 13.60771 11.24627 0 0 0
195 47.61257 14.29599 11.50686 0 0 0
196 47.05135 14.87289 12.06139 0 0 0
197 46.49553 15.65850 11.75622 0 0 0
198 46.19094 16.63818 11.61665 0 0 0
199 47.07894 17.04831 11.48822 0 0 0
200 47.78838 17.70618 11.11214 0 0 0
201 48.09891 18.65207 11.37033 0 0 0
202 47.49458 19.25218 11.80114 0 0 0
203 46.55456 7.50288 14.44561 0 0 0
204 47.36636 7.04370 14.02067 0 0 0
205 48.05725 6.26101 14.02042 0 0 0
206 48.43895 5.79193 13.27029 0 0 0
207 49.03214 5.02925 13.14032 0 0 0
208 49.97682 4.99111 13.39504 0 0 0
209 50.63864 4.76139 12.75442 0 0 0
210 51.34079 4.11063 12.35370 0 0 0
211 51.99221 3.51223 12.09368 0 0 0
212 52.70301 2.88243 12.20406 0 0 0
213 53.05011 2.42930 11.40883 0 0 0
214 52.54882 1.73721 10.91258 0 0 0
215 52.30176 1.30504 10.10395 0 0 0
216 51.83687 1.27785 9.23937 0 0 0
217 51.61939 0.66523 8.44294 0 0 0
218 51.29516 -0.26940 8.40737 0 0 0
219 51.65915 -1.01852 7.84933 0 0 0
220 52.63211 -0.87576 7.81797 0 0 0
221 45.47208 8.12086 15.43322 0 0 0
222 45.48488 7.71432 16.35379 0 0 0
223 46.05247 8.16743 17.03725 0 0 0
224 47.04599 8.08664 17.08183 0 0 0
225 47.82273 8.41722 17.57548 0 0 0
226 48.39657 8.40705 18.41182 0 0 0
227 48.49195 8.88919 19.26995 0 0 0
228 48.52945 8.99977 20.19178 0 0 0
229 49.22680 9.11333 20.90752 0 0 0
230 49.97779 9.28364 21.53984 0 0 0
231 50.51477 9.07766 22.35230 0 0 0
232 50.63205 9.59158 23.14932 0 0 0
233 50.92135 10.04541 24.00762 0 0 0
234 51.06741 9.28772 24.61541 0 0 0
235 51.57844 9.31259 25.48701 0 0 0
236 51.29285 9.48692 26.39362 0 0 0
237 50.62291 9.47790 27.11507 0 0 0
238 50.56144 9.81323 28.06537 0 0 0
239 50.66683 9.45219 28.98417 0 0 0
240 49.65200 9.58792 29.18643 0 0 0
241 49.01581 10.37574 29.19554 0 0 0
242 48.09305 10.43692 29.08417 0 0 0
243 48.12530 10.72966 29.95683 0 0 0
244 47.90448 10.36550 30.92587 0 0 0
245 47.95884 10.95881 31.75093 0 0 0
246 47.17034 11.42604 32.05152 0 0 0
247 46.52736 11.87987 32.66025 0 0 0
248 45.64266 11.49285 32.89025 0 0 0
249 44.87354 11.89986 33.24038 0 0 0
250 44.39982 12.29260 32.44148 0 0 0
251 44.24183 13.02704 33.08276 0 0 0
252 43.74601 13.79905 33.34989 0 0 0
253 44.08532 14.65883 33.72870 0 0 0
254 43.63967 15.43173 33.37162 0 0 0
255 43.16565 15.87778 32.61310 0 0 0
256 43.53994 16.70554 32.24282 0 0 0
257 43.60677 17.37149 31.56727 0 0 0
258 51.39889 10.04418 28.71693 0 0 0
259 51.84449 10.62363 28.10307 0 0 0
260 52.66865 11.10092 27.87708 0 0 0
261 53.16995 10.93756 28.68171 0 0 0
262 53.81091 11.70650 28.83732 0 0 0
263 53.92128 12.61514 29.22389 0 0 0
264 54.67142 13.13985 29.48391 0 0 0
265 55.17265 13.43743 28.65608 0 0 0
266 55.60305 14.11878 29.05237 0 0 0
267 56.07732 14.12266 29.85142 0 0 0
268 56.00792 14.93511 30.36136 0 0 0
269 56.26006 15.87424 30.48576 0 0 0
270 56.33395 16.83006 30.29690 0 0 0
271 56.41085 17.08715 29.30887 0 0 0
272 56.09678 17.10795 28.33106 0 0 0
273 55.78015 17.14699 27.37666 0 0 0
274 56.28481 17.76991 26.87946 0 0 0
275 56.78581 18.26705 26.29469 0 0 0
276 51.13804 8.84555 29.57294 0 0 0
277 52.15982 8.70510 29.67743 0 0 0
278 52.39831 7.89919 30.18407 0 0 0
279 52.59714 7.07623 30.64536 0 0 0
280 52.00916 6.43879 30.98712 0 0 0
281 52.01488 5.58063 31.41866 0 0 0
282 52.85887 5.09538 31.68885 0 0 0
283 53.39819 4.83573 32.42975 0 0 0
284 53.73600 4.22791 33.11729 0 0 0
285 53.94742 3.25005 33.32305 0 0 0
286 53.97933 2.67531 34.14831 0 0 0
287 54.18974 1.67835 34.37113 0 0 0
288 54.78218 1.75047 35.25301 0 0 0
289 54.81989 1.43312 36.13935 0 0 0
290 55.05078 1.02026 37.00338 0 0 0
291 55.36990 1.46139 37.87306 0 0 0
292 55.64288 1.84089 38.73720 0 0 0
293 55.64493 2.59517 39.30610 0 0 0
ITEM: TIMESTEP
2000
ITEM: NUMBER OF ATOMS
293
ITEM: BOX BOUNDS pp pp pp
-1.0000000000000000e+03 1.0000000000000000e+03
-1.0000000000000000e+03 1.0000000000000000e+03
-1.0000000000000000e+03 1.0000000000000000e+03
ITEM: ATOMS id x y z ix iy iz
1 3.39517 4.54854 7.69640 0 0 0
2 2.61529 4.23244 8.16881 0 0 0
3 2.16303 3.32381 8.58786 0 0 0
4 1.65778 2.54063 8.32291 0 0 0
5 1.84502 1.63356 8.62312 0 0 0
6 0.97345 1.29632 8.82232 0 0 0
7 0.04641 1.34221 8.48698 0 0 0
8 0.05869 1.29919 9.39597 0 0 0
9 -0.74466 1.35630 9.99404 0 0 0
10 -0.40264 1.63373 10.89085 0 0 0
11 -0.46625 0.79623 11.38457 0 0 0
12 -1.33542 0.86057 11.84686 0 0 0
13 -1.64408 1.44797 12.58312 0 0 0
14 -1.45840 1.53252 13.53060 0 0 0
15 -0.59849 1.34518 14.02832 0 0 0
16 -1.21311 1.30911 14.83760 0 0 0
17 -1.05767 1.24130 15.77928 0 0 0
18 -0.40042 0.42031 15.74343 0 0 0
19 0.08457 0.10430 16.49039 0 0 0
20 0.58510 -0.71853 16.64792 0 0 0
21 0.88556 -1.64035 16.48457 0 0 0
22 0.97931 -1.61526 15.48554 0 0 0
23 1.77286 -2.00032 15.15019 0 0 0
24 1.22882 -2.71757 14.75467 0 0 0
25 1.30934 -3.59675 15.17919 0 0 0
26 2.20129 -3.93074 15.55966 0 0 0
27 2.58278 -4.80284 15.13782 0 0 0
28 1.66732 -5.01689 14.93649 0 0 0
29 1.22505 -5.23835 14.05091 0 0 0
30 0.90793 -5.67310 14.90947 0 0 0
31 0.85212 -6.13017 15.82474 0 0 0
32 1.36090 -6.42766 16.58259 0 0 0
33 1.64250 -6.98418 17.44270 0 0 0
34 1.92229 -7.95101 17.32948 0 0 0
35 2.31105 -7.74880 18.29304 0 0 0
36 2.25780 -8.33220 19.07830 0 0 0
37 1.55734 -8.22432 19.75347 0 0 0
38 -0.35074 0.38938 17.28704 0 0 0
39 -1.07329 0.97333 17.66408 0 0 0
40 -2.01499 0.73518 17.50648 0 0 0
41 -2.68536 0.37840 16.96229 0 0 0
42 -3.23493 -0.35924 16.54616 0 0 0
43 -3.65647 0.51304 16.45814 0 0 0
44 -3.83832 1.51892 16.56071 0 0 0
45 -4.32594 2.24368 16.90710 0 0 0
46 -4.77146 3.09872 17.13851 0 0 0
47 -4.96075 3.81132 17.70162 0 0 0
48 -4.15785 4.17497 18.30052 0 0 0
49 -4.83635 4.11087 18.97633 0 0 0
50 -5.28160 4.77415 19.50816 0 0 0
51 -4.66160 4.91261 20.25615 0 0 0
52 -4.63325 4.62969 21.22584 0 0 0
53 -5.26062 4.42549 21.95126 0 0 0
54 -5.59136 3.85750 22.73015 0 0 0
55 -6.39013 3.20945 22.78459 0 0 0
56 0.92907 0.43659 16.66466 0 0 0
57 1.75404 0.80648 16.97245 0 0 0
58 2.63126 0.42507 16.55835 0 0 0
59 3.18974 0.06891 17.24450 0 0 0
60 4.15332 0.11358 17.07860 0 0 0
61 5.15718 0.04398 16.98777 0 0 0
62 6.15831 0.05678 16.99561 0 0 0
63 7.09715 -0.05051 17.31052 0 0 0
64 7.84688 -0.31457 17.95191 0 0 0
65 8.79416 -0.06832 17.65284 0 0 0
66 9.46092 -0.63439 17.16619 0 0 0
67 10.23770 -0.04355 17.10582 0 0 0
68 11.08754 0.23955 17.23253 0 0 0
69 11.86412 0.24487 17.84438 0 0 0
70 12.74388 0.55378 17.98891 0 0 0
71 13.28366 0.79498 18.70581 0 0 0
72 14.20865 1.25683 18.82620 0 0 0
73 14.91986 1.36615 19.40514 0 0 0
74 15.87861 1.28646 19.09557 0 0 0
75 16.32890 0.64092 19.57839 0 0 0
76 16.77415 0.61080 20.50017 0 0 0
77 16.04800 0.02861 20.72421 0 0 0
78 16.04299 -0.51079 21.51402 0 0 0
79 16.49257 -1.21889 22.01093 0 0 0
80 16.35723 -1.74584 21.20690 0 0 0
81 17.06953 -2.43515 21.34538 0 0 0
82 17.14685 -3.45336 21.17995 0 0 0
83 17.83816 -3.87587 21.83912 0 0 0
84 18.66417 -4.05696 22.39296 0 0 0
85 18.83226 -4.44819 23.29896 0 0 0
86 19.42525 -5.11701 23.88609 0 0 0
87 19.92978 -4.82579 24.63153 0 0 0
88 20.15729 -4.29919 25.42014 0 0 0
89 21.03793 -4.01422 25.70510 0 0 0
90 21.72463 -4.11150 25.02892 0 0 0
91 22.33944 -3.61461 24.47955 0 0 0
92 22.39381 -2.64108 24.36637 0 0 0
93 15.80765 1.84787 19.97699 0 0 0
94 15.12141 2.48247 19.82025 0 0 0
95 15.04159 2.61966 20.90657 0 0 0
96 15.15230 1.87084 21.63908 0 0 0
97 15.39938 2.33324 22.52418 0 0 0
98 15.34943 2.74329 23.35925 0 0 0
99 15.21972 2.68680 24.35787 0 0 0
100 14.82780 3.33431 24.99267 0 0 0
101 14.28072 4.10770 25.14822 0 0 0
102 13.67752 3.95217 25.90834 0 0 0
103 13.82165 4.22639 26.81068 0 0 0
104 13.50191 4.85195 27.44493 0 0 0
105 13.47579 5.87046 27.38003 0 0 0
106 13.21839 6.81045 27.61113 0 0 0
107 13.80150 7.47985 27.14159 0 0 0
108 14.57338 7.39055 27.76090 0 0 0
109 15.30028 8.00754 27.67088 0 0 0
110 16.01290 7.79558 28.35879 0 0 0
111 16.54597 1.98252 19.03778 0 0 0
112 17.03115 2.09740 18.14300 0 0 0
113 17.87811 2.08592 17.67247 0 0 0
114 18.64961 2.06237 17.15479 0 0 0
115 19.61122 2.07713 17.31664 0 0 0
116 20.59935 1.93828 17.52989 0 0 0
117 21.34236 2.26668 17.00231 0 0 0
118 21.92533 2.79615 16.35640 0 0 0
119 22.86800 3.04625 15.96521 0 0 0
120 23.59244 2.89428 15.39381 0 0 0
121 24.39545 2.25981 15.23104 0 0 0
122 25.24808 2.64357 15.12465 0 0 0
123 26.09304 2.99269 14.75870 0 0 0
124 26.86475 3.45653 14.32124 0 0 0
125 27.64548 4.10506 13.82159 0 0 0
126 28.08219 4.45228 13.00163 0 0 0
127 28.76560 4.10726 12.39006 0 0 0
128 29.37767 3.90731 11.68803 0 0 0
129 29.64423 4.05745 10.74465 0 0 0
130 29.38678 4.93284 10.30435 0 0 0
131 28.95527 5.18476 9.48567 0 0 0
132 29.33325 6.01617 9.20996 0 0 0
133 29.11522 6.90562 8.85367 0 0 0
134 29.71439 7.43629 8.34846 0 0 0
135 30.09664 8.33843 8.55868 0 0 0
136 29.61281 8.82238 7.85857 0 0 0
137 29.68513 8.39321 7.01224 0 0 0
138 30.06916 7.91517 6.19543 0 0 0
139 29.22182 8.18111 5.78938 0 0 0
140 28.71232 8.51185 5.01089 0 0 0
141 28.58547 8.70080 4.06392 0 0 0
142 27.74507 8.95545 3.74851 0 0 0
143 26.83625 9.35319 3.63955 0 0 0
144 25.95755 9.39020 3.04825 0 0 0
145 26.25174 9.00619 2.18934 0 0 0
146 26.06922 8.06369 2.33379 0 0 0
147 25.26008 8.57584 2.58202 0 0 0
148 29.26161 3.16016 10.69609 0 0 0
149 28.90597 2.84991 9.79576 0 0 0
150 28.70598 1.99972 9.38986 0 0 0
151 28.26921 1.47768 8.65153 0 0 0
152 28.14114 0.50487 8.64874 0 0 0
153 27.96637 -0.30819 8.13459 0 0 0
154 27.41066 -0.96911 8.60972 0 0 0
155 26.62055 -1.18761 8.14418 0 0 0
156 26.81025 -2.15646 8.12983 0 0 0
157 27.22444 -2.83985 7.53566 0 0 0
158 27.35846 -3.83010 7.70750 0 0 0
159 26.77618 -4.50594 8.00585 0 0 0
160 25.81623 -4.72780 7.93619 0 0 0
161 25.45141 -4.36530 7.11107 0 0 0
162 24.99617 -3.52637 7.31882 0 0 0
163 24.88357 -3.02626 8.18321 0 0 0
164 24.34596 -2.52108 8.87698 0 0 0
165 23.61974 -3.24567 8.89335 0 0 0
166 30.52937 4.65981 10.77800 0 0 0
167 31.23754 5.20081 11.00125 0 0 0
168 32.13217 5.14384 11.50334 0 0 0
169 33.08265 5.25372 11.18066 0 0 0
170 33.94595 5.53240 10.84453 0 0 0
171 34.78121 5.97296 10.99051 0 0 0
172 35.21178 5.95971 11.90431 0 0 0
173 36.18167 6.10803 11.72747 0 0 0
174 36.97838 6.66437 11.54244 0 0 0
175 37.95137 6.34064 11.60399 0 0 0
176 38.58494 6.73069 10.94726 0 0 0
177 39.25256 7.30329 11.27038 0 0 0
178 39.99737 7.33801 11.93843 0 0 0
179 40.32895 7.25332 12.87654 0 0 0
180 41.36152 7.43293 12.91720 0 0 0
181 42.29089 7.13369 13.16453 0 0 0
182 42.89838 6.96351 13.95406 0 0 0
183 43.56057 7.57559 14.29428 0 0 0
184 44.42405 7.98916 14.03536 0 0 0
185 43.58994 8.50395 13.58097 0 0 0
186 43.64866 8.75412 12.63302 0 0 0
187 43.72329 9.06295 11.69401 0 0 0
188 44.33309 8.24142 11.59960 0 0 0
189 45.20722 8.45499 11.36402 0 0 0
190 45.91548 8.97668 11.85039 0 0 0
191 45.45059 9.65775 11.23348 0 0 0
192 45.30919 10.59696 10.86296 0 0 0
193 45.11200 11.48931 10.33758 0 0 0
194 45.98441 11.75871 10.15997 0 0 0
195 46.13814 12.39800 10.81774 0 0 0
196 46.07397 13.27531 11.13068 0 0 0
197 46.52100 14.06578 11.49522 0 0 0
198 45.83365 14.74497 11.12324 0 0 0
199 44.97401 14.85396 10.70691 0 0 0
200 44.50941 15.35914 11.42623 0 0 0
201 45.38073 15.70877 11.41550 0 0 0
202 45.71492 15.23079 12.16288 0 0 0
203 45.30401 7.63331 13.61284 0 0 0
204 46.11362 7.17982 13.37745 0 0 0
205 45.42170 6.47617 13.26014 0 0 0
206 46.05389 5.73359 12.99733 0 0 0
207 46.94795 5.88429 12.63942 0 0 0
208 47.89237 5.89644 12.86233 0 0 0
209 48.88953 5.76414 12.73371 0 0 0
210 49.68633 5.32468 13.16529 0 0 0
211 50.28741 4.54496 12.95933 0 0 0
212 50.26350 3.77461 12.36858 0 0 0
213 50.39293 3.21524 11.61633 0 0 0
214 51.23103 3.46707 11.13561 0 0 0
215 51.50273 2.87003 10.45432 0 0 0
216 51.45165 2.64694 9.51026 0 0 0
217 50.81300 3.07947 8.86736 0 0 0
218 51.43361 3.15306 8.12555 0 0 0
219 51.17388 3.23024 7.06438 0 0 0
220 50.24630 2.82651 6.92538 0 0 0
221 44.94818 7.55295 14.78523 0 0 0
222 45.72460 8.14171 14.88090 0 0 0
223 46.32088 7.82840 15.54937 0 0 0
224 46.37092 8.23988 16.52694 0 0 0
225 46.80561 8.27537 17.42964 0 0 0
226 46.06639 8.11012 18.05942 0 0 0
227 46.37257 8.30527 19.02244 0 0 0
228 46.49515 8.11296 20.05737 0 0 0
229 46.90774 7.18993 20.40182 0 0 0
230 47.80366 7.26087 20.88241 0 0 0
231 48.02254 7.14090 21.83077 0 0 0
232 48.52071 7.46785 22.58900 0 0 0
233 48.88439 8.00795 23.37199 0 0 0