ITEM: TIMESTEP
0
ITEM: NUMBER OF ATOMS
97
ITEM: BOX BOUNDS pp pp pp
-1.0000000000000000e+03 1.0000000000000000e+03
-1.0000000000000000e+03 1.0000000000000000e+03
-1.0000000000000000e+03 1.0000000000000000e+03
ITEM: ATOMS id x y z ix iy iz
1 0.00000 0.00000 0.00000 0 0 0
2 0.00000 0.00000 1.00000 0 0 0
3 0.00000 -0.50000 1.86603 0 0 0
4 0.00000 0.00000 2.73205 0 0 0
5 0.00000 -0.50000 3.59808 0 0 0
6 0.00000 0.00000 4.46410 0 0 0
7 0.00000 -0.50000 5.33013 0 0 0
8 -0.85250 -1.01527 5.41808 0 0 0
9 -1.70501 -1.50548 5.23662 0 0 0
10 -2.55751 -1.90774 5.57043 0 0 0
11 -3.41002 -2.39795 5.38897 0 0 0
12 -4.26252 -2.80021 5.72278 0 0 0
13 -5.11502 -3.29042 5.54132 0 0 0
14 0.07789 0.14666 6.08892 0 0 0
15 0.15578 0.32728 7.06938 0 0 0
16 0.23366 1.26670 7.40319 0 0 0
17 0.31155 1.44732 8.38365 0 0 0
18 0.38944 2.38674 8.71746 0 0 0
19 0.46733 2.56736 9.69793 0 0 0
20 0.77462 -1.13210 5.35063 0 0 0
21 1.54923 -1.68977 5.05234 0 0 0
22 2.32385 -2.22693 5.38615 0 0 0
23 3.09846 -2.78459 5.08785 0 0 0
24 3.87308 -3.32176 5.42166 0 0 0
25 4.64770 -3.87942 5.12337 0 0 0
26 4.31547 -4.76314 4.79372 0 0 0
27 3.98325 -5.36364 4.06638 0 0 0
28 3.65103 -6.29379 4.22276 0 0 0
29 3.31881 -6.89429 3.49541 0 0 0
30 2.98658 -7.82444 3.65179 0 0 0
31 2.65436 -8.42494 2.92445 0 0 0
32 5.27075 -4.02375 5.89211 0 0 0
33 5.89381 -4.53312 6.48570 0 0 0
34 6.51686 -4.27374 7.22362 0 0 0
35 7.13992 -4.78311 7.81721 0 0 0
36 7.76298 -4.52373 8.55512 0 0 0
37 8.38603 -5.03310 9.14871 0 0 0
38 5.13258 -3.40983 4.38555 0 0 0
39 5.61746 -2.63424 3.98138 0 0 0
40 6.10234 -2.59647 3.10762 0 0 0
41 6.58723 -1.82088 2.70345 0 0 0
42 7.07211 -1.78311 1.82969 0 0 0
43 7.55699 -1.00753 1.42551 0 0 0
44 7.82181 -1.23147 0.48758 0 0 0
45 8.08664 -0.95644 -0.43666 0 0 0
46 8.35146 -1.61934 -1.13697 0 0 0
47 8.61628 -1.34432 -2.06121 0 0 0
48 8.88110 -2.00722 -2.76152 0 0 0
49 9.14592 -1.73219 -3.68576 0 0 0
50 8.37574 -0.80838 1.96402 0 0 0
51 9.19449 -0.90516 2.52996 0 0 0
52 10.01324 -0.46344 2.89674 0 0 0
53 10.83199 -0.56022 3.46268 0 0 0
54 11.65074 -0.11850 3.82946 0 0 0
55 12.46949 -0.21528 4.39540 0 0 0
56 6.95899 -0.20605 1.42020 0 0 0
57 6.36100 0.49071 1.81633 0 0 0
58 5.76300 1.18216 1.41099 0 0 0
59 5.16500 1.87892 1.80712 0 0 0
60 4.56700 2.57036 1.40178 0 0 0
61 3.96900 3.26712 1.79791 0 0 0
62 3.63025 2.95154 2.68428 0 0 0
63 3.29151 2.23505 3.29411 0 0 0
64 2.95276 2.40493 4.21953 0 0 0
65 2.61401 1.68844 4.82936 0 0 0
66 2.27527 1.85832 5.75477 0 0 0
67 1.93652 1.14183 6.36460 0 0 0
68 3.19584 3.43096 1.18523 0 0 0
69 2.42267 3.87919 0.73656 0 0 0
70 1.64951 3.71475 0.12405 0 0 0
71 0.87635 4.16298 -0.32463 0 0 0
72 0.10318 3.99853 -0.93714 0 0 0
73 -0.66998 4.44676 -1.38581 0 0 0
74 4.48206 4.11661 1.92091 0 0 0
75 4.99513 4.79079 2.45218 0 0 0
76 5.50819 5.58798 2.13396 0 0 0
77 6.02125 6.26216 2.66523 0 0 0
78 6.53432 7.05934 2.34700 0 0 0
79 7.04738 7.73352 2.87827 0 0 0
80 7.90097 7.95180 2.40526 0 0 0
81 8.75456 8.37733 2.10476 0 0 0
82 9.60815 8.32986 1.58598 0 0 0
83 10.46174 8.75540 1.28548 0 0 0
84 11.31533 8.70793 0.76670 0 0 0
85 12.16892 9.13346 0.46620 0 0 0
86 7.25408 7.35905 3.78218 0 0 0
87 7.46078 6.58280 4.37775 0 0 0
88 7.66748 6.71045 5.34779 0 0 0
89 7.87418 5.93420 5.94336 0 0 0
90 8.08088 6.06185 6.91340 0 0 0
91 8.28757 5.28560 7.50898 0 0 0
92 6.50088 8.56485 2.97940 0 0 0
93 5.95438 9.23424 3.48264 0 0 0
94 5.40789 10.00476 3.15456 0 0 0
95 4.86139 10.67415 3.65780 0 0 0
96 4.31489 11.44467 3.32972 0 0 0
97 3.76839 12.11406 3.83296 0 0 0
ITEM: TIMESTEP
1000
ITEM: NUMBER OF ATOMS
97
ITEM: BOX BOUNDS pp pp pp
-1.0000000000000000e+03 1.0000000000000000e+03
-1.0000000000000000e+03 1.0000000000000000e+03
-1.0000000000000000e+03 1.0000000000000000e+03
ITEM: ATOMS id x y z ix iy iz
1 -1.95615 -0.34933 3.60844 0 0 0
2 -1.40434 -0.71797 4.31416 0 0 0
3 -1.61647 -1.68643 4.32350 0 0 0
4 -0.89825 -1.92972 4.85804 0 0 0
5 -0.50391 -2.16938 5.68942 0 0 0
6 -0.39893 -1.76262 6.52058 0 0 0
7 -0.39916 -1.11865 7.28654 0 0 0
8 0.04355 -1.84418 7.82003 0 0 0
9 0.19867 -2.78083 7.81866 0 0 0
10 -0.12380 -3.63471 8.03489 0 0 0
11 -0.95719 -3.16542 8.16948 0 0 0
12 -1.81333 -3.38537 8.66586 0 0 0
13 -1.87531 -2.68827 9.42421 0 0 0
14 -0.88112 -0.78410 8.03827 0 0 0
15 -1.48905 -0.03520 8.10515 0 0 0
16 -1.93292 0.78892 7.87589 0 0 0
17 -2.70504 0.95371 8.59185 0 0 0
18 -3.35078 1.68661 8.63249 0 0 0
19 -2.99820 2.21606 7.90193 0 0 0
20 -0.19253 -0.13623 7.11559 0 0 0
21 0.74634 -0.25595 6.90304 0 0 0
22 1.69523 -0.34595 6.77827 0 0 0
23 2.46394 -0.76931 6.30365 0 0 0
24 3.01839 -1.39994 5.79971 0 0 0
25 3.68639 -1.65273 5.12504 0 0 0
26 3.14632 -1.92755 4.35120 0 0 0
27 2.77627 -2.88020 4.14892 0 0 0
28 3.23501 -3.54359 3.72122 0 0 0
29 3.47896 -4.48947 4.08630 0 0 0
30 3.98756 -5.41957 4.09561 0 0 0
31 3.40750 -5.65696 4.81839 0 0 0
32 3.98374 -2.42547 5.63448 0 0 0
33 4.95666 -2.19885 5.98081 0 0 0
34 5.75092 -2.45700 6.49257 0 0 0
35 5.83395 -2.63158 5.55169 0 0 0
36 5.79388 -3.53952 5.10651 0 0 0
37 4.92326 -3.98071 5.38651 0 0 0
38 4.36456 -1.71055 4.47039 0 0 0
39 5.10800 -1.86304 3.74150 0 0 0
40 5.23415 -1.84723 2.72869 0 0 0
41 6.10586 -2.39547 2.31922 0 0 0
42 6.63494 -1.50319 2.39666 0 0 0
43 6.72023 -0.91904 1.55986 0 0 0
44 6.90440 -1.22191 0.63922 0 0 0
45 7.02127 -0.54111 -0.06737 0 0 0
46 6.54908 -0.12806 -0.82579 0 0 0
47 5.80639 -0.12468 -1.39610 0 0 0
48 5.08320 -0.53382 -0.83831 0 0 0
49 4.98012 -1.22549 -0.12037 0 0 0
50 7.45478 -0.88266 2.19625 0 0 0
51 7.91269 -1.75997 2.13812 0 0 0
52 7.68821 -1.69907 3.11201 0 0 0
53 7.68644 -2.20411 4.01624 0 0 0
54 7.75315 -3.21174 3.88220 0 0 0
55 7.79286 -4.13261 3.45069 0 0 0
56 5.86172 -1.13493 1.20647 0 0 0
57 5.35637 -0.30581 0.80804 0 0 0
58 5.84999 0.53406 0.80261 0 0 0
59 6.09724 1.04086 1.65897 0 0 0
60 6.26668 1.92058 1.89634 0 0 0
61 6.55580 2.80817 1.75186 0 0 0
62 5.63498 2.97777 1.45762 0 0 0
63 5.43446 2.52674 2.32395 0 0 0
64 4.57150 2.04404 2.72489 0 0 0
65 4.22973 1.31118 3.25608 0 0 0
66 3.38975 0.97998 3.77998 0 0 0
67 2.80234 1.80236 3.69001 0 0 0
68 6.50471 2.98673 0.69328 0 0 0
69 6.82379 3.81852 0.24684 0 0 0
70 5.83753 3.63272 0.04249 0 0 0
71 5.00577 3.90969 -0.45780 0 0 0
72 4.22121 3.58529 0.14940 0 0 0
73 3.87498 3.28879 1.04059 0 0 0
74 6.19730 3.66089 2.04787 0 0 0
75 5.95588 4.64936 1.78681 0 0 0
76 5.49889 5.43540 1.53755 0 0 0
77 5.93042 5.91236 2.22364 0 0 0
78 6.19138 6.86045 1.87266 0 0 0
79 7.18447 7.28059 2.01356 0 0 0
80 8.00092 7.27014 2.39374 0 0 0
81 8.82749 7.03073 1.87944 0 0 0
82 9.56339 7.07662 2.58918 0 0 0
83 9.70768 7.95683 2.88594 0 0 0
84 10.62864 7.86442 2.48628 0 0 0
85 11.42160 8.07725 2.06203 0 0 0
86 7.02371 6.95584 2.94760 0 0 0
87 7.54203 6.18202 2.71704 0 0 0
88 7.73271 5.36639 2.12270 0 0 0
89 7.79960 5.66944 1.19040 0 0 0
90 7.44892 5.91879 0.29514 0 0 0
91 7.21514 6.83531 0.63717 0 0 0
92 7.54485 8.10375 1.68919 0 0 0
93 7.63476 8.77784 1.03334 0 0 0
94 7.79965 9.17901 0.00812 0 0 0
95 8.51473 9.11936 -0.69713 0 0 0
96 8.69055 9.85872 -1.35587 0 0 0
97 9.00105 9.01634 -1.65122 0 0 0
ITEM: TIMESTEP
2000
ITEM: NUMBER OF ATOMS
97
ITEM: BOX BOUNDS pp pp pp
-1.0000000000000000e+03 1.0000000000000000e+03
-1.0000000000000000e+03 1.0000000000000000e+03
-1.0000000000000000e+03 1.0000000000000000e+03
ITEM: ATOMS id x y z ix iy iz
1 -3.45128 -0.62971 4.61682 0 0 0
2 -2.71596 -0.16177 5.04509 0 0 0
3 -2.16469 -0.77611 5.49949 0 0 0
4 -1.58810 -1.22292 6.17854 0 0 0
5 -0.94745 -1.52283 5.57818 0 0 0
6 -0.48119 -0.91855 6.12417 0 0 0
7 -0.41263 -0.02945 6.22138 0 0 0
8 -1.13946 0.19405 6.89950 0 0 0
9 -1.49209 -0.47597 7.55473 0 0 0
10 -1.03837 -1.13767 8.02551 0 0 0
11 -0.26680 -1.67500 8.10042 0 0 0
12 -0.47660 -2.47386 8.70457 0 0 0
13 0.12230 -2.15197 9.34013 0 0 0
14 0.30606 -0.20008 6.84063 0 0 0
15 0.48556 -0.31564 7.75220 0 0 0
16 0.06675 -0.48172 8.64490 0 0 0
17 -0.84732 -0.56704 9.06278 0 0 0
18 -0.74952 -0.28439 10.10783 0 0 0
19 0.06862 -0.67586 10.42296 0 0 0
20 0.11346 0.10240 5.41118 0 0 0
21 1.02724 0.21564 5.05812 0 0 0
22 1.56257 -0.36519 4.50069 0 0 0
23 2.42789 -0.91846 4.56459 0 0 0
24 3.24364 -1.42875 4.27854 0 0 0
25 4.03509 -1.88047 3.99859 0 0 0
26 3.64329 -2.39631 3.34185 0 0 0
27 3.69040 -3.27687 2.87537 0 0 0
28 3.58323 -4.28811 2.99373 0 0 0
29 3.05807 -5.07328 3.23046 0 0 0
30 3.25577 -5.68445 2.53578 0 0 0
31 3.32079 -5.59157 1.54722 0 0 0
32 4.54208 -2.19920 4.87361 0 0 0
33 4.68348 -3.19253 4.94654 0 0 0
34 4.73537 -2.66866 5.78832 0 0 0
35 5.06215 -1.84340 6.38934 0 0 0
36 5.08974 -2.31593 7.27761 0 0 0
37 5.14839 -3.22803 6.95923 0 0 0
38 4.94867 -1.60359 3.94094 0 0 0
39 5.59295 -1.46645 3.26625 0 0 0
40 5.87478 -1.21263 2.36918 0 0 0
41 5.55093 -0.58947 1.65961 0 0 0
42 5.04707 -0.32106 2.46287 0 0 0
43 6.02978 0.10427 2.33947 0 0 0
44 6.60383 0.22836 1.52775 0 0 0
45 7.49983 -0.16458 1.51317 0 0 0
46 8.03480 -0.02790 0.63225 0 0 0
47 8.77962 0.34013 0.12866 0 0 0
48 9.68921 0.31219 -0.46305 0 0 0
49 9.68082 0.77806 -1.29541 0 0 0
50 6.81478 0.27453 2.89889 0 0 0
51 7.15213 0.40946 3.76367 0 0 0
52 7.24630 -0.34479 4.33019 0 0 0
53 7.87654 -1.10781 4.34841 0 0 0
54 8.76196 -1.13961 4.77827 0 0 0
55 9.61492 -1.55597 4.72939 0 0 0
56 5.40526 0.88941 2.13362 0 0 0
57 5.07245 1.84055 2.12129 0 0 0
58 5.29935 2.78544 1.93309 0 0 0
59 5.88468 2.70102 1.17751 0 0 0
60 5.44539 3.70203 1.41851 0 0 0
61 6.06011 4.32068 1.85207 0 0 0
62 5.85877 3.79413 2.73471 0 0 0
63 5.87099 3.86123 3.70259 0 0 0
64 6.30639 4.31738 4.48894 0 0 0
65 5.94635 4.91225 5.35404 0 0 0
66 4.96971 4.71472 5.56811 0 0 0
67 5.19967 4.57586 6.42966 0 0 0
68 5.85006 4.42978 0.86246 0 0 0
69 5.03156 4.01265 0.35377 0 0 0
70 4.26311 4.12786 0.93330 0 0 0
71 3.68690 3.33869 1.29027 0 0 0
72 2.81502 2.91673 1.58912 0 0 0
73 2.35573 2.43372 0.90052 0 0 0
74 5.94034 5.29314 1.63219 0 0 0
75 6.31619 6.08096 1.21680 0 0 0
76 6.50296 6.75534 0.48256 0 0 0
77 7.01468 7.30274 -0.18067 0 0 0
78 7.40961 7.31670 -1.05399 0 0 0
79 8.07784 7.25883 -0.30049 0 0 0
80 9.00920 7.23212 -0.59193 0 0 0
81 9.46054 8.09790 -0.51070 0 0 0
82 10.23030 8.24102 -1.21588 0 0 0
83 11.15339 8.25970 -1.36821 0 0 0
84 11.21493 7.50837 -0.68098 0 0 0
85 11.89899 7.76526 -0.03538 0 0 0
86 7.94681 7.65990 0.54473 0 0 0
87 7.73232 7.62671 1.50137 0 0 0
88 8.19467 6.80519 1.71398 0 0 0
89 7.75877 5.95561 2.12878 0 0 0
90 8.59970 5.59444 2.48888 0 0 0
91 9.47004 5.56078 3.03369 0 0 0
92 8.41099 7.85279 -1.12586 0 0 0
93 8.40369 8.74043 -0.58452 0 0 0
94 8.83420 9.62744 -0.53774 0 0 0
95 9.00368 10.53768 -0.79470 0 0 0
96 8.00785 10.36814 -0.83066 0 0 0
97 7.51663 10.23997 0.03734 0 0 0
ITEM: TIMESTEP
3000
ITEM: NUMBER OF ATOMS
97
ITEM: BOX BOUNDS pp pp pp
-1.0000000000000000e+03 1.0000000000000000e+03
-1.0000000000000000e+03 1.0000000000000000e+03
-1.0000000000000000e+03 1.0000000000000000e+03
ITEM: ATOMS id x y z ix iy iz
1 -0.69662 -5.17856 4.42469 0 0 0
2 -1.57791 -5.63952 4.47426 0 0 0
3 -1.02947 -5.84957 5.24124 0 0 0
4 -0.34839 -5.25901 5.65069 0 0 0
5 -0.47822 -4.20763 5.49093 0 0 0
6 -0.92649 -3.35696 5.75278 0 0 0
7 -0.16416 -2.82181 6.00763 0 0 0
8 -0.76675 -2.26121 6.74937 0 0 0
9 -1.37943 -2.08436 7.59746 0 0 0
10 -2.19070 -2.11914 8.15737 0 0 0
11 -2.78241 -1.39344 8.25746 0 0 0
12 -3.18150 -1.96404 9.03475 0 0 0
13 -2.97424 -2.88227 9.37677 0 0 0
14 -0.06789 -1.84523 6.14804 0 0 0
15 -0.06168 -1.11885 6.73613 0 0 0
16 0.70950 -1.07522 7.41275 0 0 0
17 1.29882 -1.52713 6.72015 0 0 0
18 2.03320 -1.71043 6.05532 0 0 0
19 2.91260 -1.95350 6.30621 0 0 0
20 0.45610 -2.72707 5.24496 0 0 0
21 0.70917 -1.81695 5.39181 0 0 0
22 1.65766 -2.11759 5.12105 0 0 0
23 1.99032 -2.70959 4.46535 0 0 0
24 2.98371 -2.80567 4.51496 0 0 0
25 3.44065 -2.05682 4.08655 0 0 0
26 3.30116 -2.82461 3.47780 0 0 0
27 3.25363 -2.44743 2.59012 0 0 0
28 3.17325 -2.83677 1.69976 0 0 0
29 2.68028 -2.20194 1.12959 0 0 0
30 3.09244 -1.59167 1.75724 0 0 0
31 3.65980 -0.76622 2.11770 0 0 0
32 4.25333 -2.29630 4.57019 0 0 0
33 5.04895 -1.79328 4.48970 0 0 0
34 5.45925 -2.66365 4.67728 0 0 0
35 6.22331 -2.20345 5.05271 0 0 0
36 7.00879 -2.22501 5.51325 0 0 0
37 6.62356 -2.45049 6.40544 0 0 0
38 3.90033 -1.26067 3.46684 0 0 0
39 3.17346 -0.59903 3.61164 0 0 0
40 3.49736 0.31496 3.54191 0 0 0
41 3.81448 1.24333 3.98402 0 0 0
42 4.25688 1.37127 3.17554 0 0 0
43 5.14628 1.27126 2.80566 0 0 0
44 4.97172 1.00892 1.77388 0 0 0
45 5.62299 1.56846 1.37344 0 0 0
46 6.54704 1.12107 1.29899 0 0 0
47 6.91597 1.46831 0.48256 0 0 0
48 6.96227 1.39924 -0.54504 0 0 0
49 7.15699 1.74676 -1.47089 0 0 0
50 6.04062 1.01557 3.16698 0 0 0
51 6.24107 0.41336 2.50774 0 0 0
52 6.65480 -0.17424 3.15336 0 0 0
53 7.28411 -0.79731 3.38840 0 0 0
54 7.75514 -1.54632 3.80645 0 0 0
55 8.16798 -2.33441 4.24316 0 0 0
56 5.49912 1.59525 3.79012 0 0 0
57 5.34909 2.53315 3.48988 0 0 0
58 6.01297 3.05309 4.02646 0 0 0
59 6.83475 3.58392 4.06643 0 0 0
60 6.61622 4.38191 3.43486 0 0 0
61 5.85169 5.08107 3.47062 0 0 0
62 5.15459 5.20726 4.18297 0 0 0
63 5.11079 5.74211 4.98682 0 0 0
64 4.99138 6.12943 5.99433 0 0 0
65 5.36839 5.78571 6.81541 0 0 0
66 6.17759 5.81610 7.46386 0 0 0
67 6.30817 5.95374 8.44755 0 0 0
68 5.26675 4.74487 2.71136 0 0 0
69 5.06728 4.04746 2.08080 0 0 0
70 5.55620 4.45685 1.31890 0 0 0
71 5.35627 5.34270 1.63797 0 0 0
72 4.52055 5.60847 1.30164 0 0 0
73 4.11852 5.07625 2.07570 0 0 0
74 5.98547 5.59377 2.65845 0 0 0
75 6.58442 6.15879 2.11240 0 0 0
76 7.10848 6.72674 1.43885 0 0 0
77 7.18246 7.66073 1.10174 0 0 0
78 8.16227 7.68253 0.89831 0 0 0
79 9.07120 7.72054 0.84819 0 0 0
80 9.88888 7.04861 0.52203 0 0 0
81 10.50716 6.62938 -0.18891 0 0 0
82 11.47093 6.71688 -0.50372 0 0 0
83 12.30154 6.68240 -0.97522 0 0 0
84 12.77036 5.82377 -0.99725 0 0 0
85 13.66420 5.56290 -1.36054 0 0 0
86 9.73218 7.97015 1.50556 0 0 0
87 10.58712 8.07689 1.78936 0 0 0
88 11.51265 8.45096 1.54926 0 0 0
89 11.69848 7.49459 1.24080 0 0 0
90 11.18567 6.66612 1.10194 0 0 0
91 12.04007 6.10800 1.32503 0 0 0
92 8.73906 7.61111 -0.07762 0 0 0
93 8.08333 7.27609 -0.76033 0 0 0
94 7.33603 7.79990 -1.23948 0 0 0
95 7.07733 8.81786 -1.22387 0 0 0
96 7.04407 9.80896 -0.91381 0 0 0
97 6.68543 10.53695 -1.46967 0 0 0
ITEM: TIMESTEP
4000
ITEM: NUMBER OF ATOMS
97
ITEM: BOX BOUNDS pp pp pp
-1.0000000000000000e+03 1.0000000000000000e+03
-1.0000000000000000e+03 1.0000000000000000e+03
-1.0000000000000000e+03 1.0000000000000000e+03
ITEM: ATOMS id x y z ix iy iz
1 3.13435 -4.59326 6.58702 0 0 0
2 2.60049 -5.14387 7.17578 0 0 0
3 1.60073 -5.01191 7.31063 0 0 0
4 0.91900 -4.35213 7.03309 0 0 0
5 1.06632 -3.69994 6.32067 0 0 0
6 0.18071 -3.56195 5.84707 0 0 0
7 -0.09017 -2.86155 6.39339 0 0 0
8 0.27711 -1.93580 5.98502 0 0 0
9 0.08199 -1.28210 5.34352 0 0 0
10 0.12821 -0.41360 5.67612 0 0 0
11 0.05666 -0.62232 6.76933 0 0 0
12 -0.20843 -0.96957 7.63620 0 0 0
13 0.58567 -0.91663 8.30774 0 0 0
14 -0.52983 -2.72576 5.53050 0 0 0
15 -1.11815 -2.47321 4.71223 0 0 0
16 -0.30592 -2.43523 4.13001 0 0 0
17 0.64444 -2.75179 4.09252 0 0 0
18 1.33806 -2.23828 4.66031 0 0 0
19 1.57881 -1.59876 3.96815 0 0 0
20 0.79664 -2.82284 6.68954 0 0 0
21 1.38251 -2.10208 6.51465 0 0 0
22 1.93284 -2.42724 5.74172 0 0 0
23 2.71030 -2.88044 5.38198 0 0 0
24 3.45480 -2.52078 4.85081 0 0 0
25 3.60631 -1.94676 4.02046 0 0 0
26 2.73400 -2.13960 3.52328 0 0 0
27 2.99237 -2.16068 2.51952 0 0 0
28 3.42185 -3.03725 2.24606 0 0 0
29 4.15534 -2.39779 1.84385 0 0 0
30 5.12846 -2.36456 1.51973 0 0 0
31 6.07742 -2.75949 1.25421 0 0 0
32 4.27467 -2.52125 3.57676 0 0 0
33 4.83268 -2.34674 2.80177 0 0 0
34 5.59452 -1.84478 2.74164 0 0 0
35 6.21494 -1.04383 2.67438 0 0 0
36 7.10194 -0.67737 2.58870 0 0 0
37 7.60092 -1.38275 3.02070 0 0 0
38 4.19106 -1.16528 4.03254 0 0 0
39 4.95079 -0.53768 4.05051 0 0 0
40 5.37621 0.26403 3.70343 0 0 0
41 5.42559 0.01814 2.76160 0 0 0
42 5.52689 0.37324 1.86762 0 0 0
43 6.00999 1.18444 1.95627 0 0 0
44 6.85826 1.01883 1.52955 0 0 0
45 7.37779 1.44353 0.79429 0 0 0
46 7.81923 1.60525 -0.05721 0 0 0
47 7.45793 2.30445 -0.67915 0 0 0
48 6.74118 2.43118 -0.07547 0 0 0
49 5.87422 2.79794 0.24768 0 0 0
50 6.21064 0.95208 2.84091 0 0 0
51 6.69503 0.59479 3.54344 0 0 0
52 6.77823 1.12762 4.39259 0 0 0
53 6.88031 1.10869 5.38491 0 0 0
54 7.14954 1.43569 6.28764 0 0 0
55 6.76042 1.58889 7.21115 0 0 0
56 5.86478 1.89253 2.48463 0 0 0
57 6.29666 2.75740 2.57597 0 0 0
58 6.33008 3.75117 2.36770 0 0 0
59 5.39346 3.71518 2.08865 0 0 0
60 4.98970 4.53756 2.55076 0 0 0
61 4.52048 5.16333 2.06471 0 0 0
62 4.45438 6.16744 2.24824 0 0 0
63 4.63813 6.57304 3.07961 0 0 0
64 5.19301 6.41854 3.86281 0 0 0
65 6.08985 6.08730 4.19722 0 0 0
66 7.06355 6.30276 4.17270 0 0 0
67 7.49728 5.49759 4.42946 0 0 0
68 3.46156 5.19144 1.60582 0 0 0
69 3.86892 5.53159 0.71466 0 0 0
70 4.06658 4.72960 0.21675 0 0 0
71 5.00149 4.55455 -0.07695 0 0 0
72 5.60289 3.91766 -0.49408 0 0 0
73 4.82837 3.50026 -0.97797 0 0 0
74 4.97711 4.85741 1.27691 0 0 0
75 5.81253 5.36710 1.14566 0 0 0
76 6.59804 5.27432 0.44459 0 0 0
77 6.81437 6.21277 0.76434 0 0 0
78 6.66734 7.22371 0.79415 0 0 0
79 7.24683 7.60108 0.00177 0 0 0
80 7.94227 6.93249 -0.24819 0 0 0
81 8.91440 7.16055 -0.27668 0 0 0
82 9.82080 7.27238 0.01455 0 0 0
83 10.36330 7.30000 -0.87492 0 0 0
84 10.46080 7.13860 -1.87810 0 0 0
85 10.37493 6.65569 -2.73542 0 0 0
86 7.85070 8.09660 0.61098 0 0 0
87 8.30932 8.58041 1.22498 0 0 0
88 8.71072 7.80674 1.55945 0 0 0
89 9.09088 6.79619 1.61184 0 0 0
90 9.83811 7.15676 1.00548 0 0 0
91 10.03305 6.25371 1.16707 0 0 0
92 6.60386 7.63117 -0.74229 0 0 0
93 6.66539 7.98612 -1.62234 0 0 0
94 7.25653 7.34863 -2.14684 0 0 0
95 7.22175 8.02450 -2.89843 0 0 0
96 7.36479 7.22057 -3.43816 0 0 0
97 7.92786 6.33512 -3.29229 0 0 0
ITEM: TIMESTEP
5000
ITEM: NUMBER OF ATOMS
97
ITEM: BOX BOUNDS pp pp pp
-1.0000000000000000e+03 1.0000000000000000e+03
-1.0000000000000000e+03 1.0000000000000000e+03
-1.0000000000000000e+03 1.0000000000000000e+03
ITEM: ATOMS id x y z ix iy iz
1 -1.39059 -6.21456 4.75962 0 0 0
2 -0.80485 -6.67342 5.38410 0 0 0
3 -1.15945 -5.98100 6.01990 0 0 0
4 -0.38617 -5.55597 5.60634 0 0 0
5 -0.18583 -4.60203 5.54142 0 0 0
6 -0.13181 -3.97775 6.30421 0 0 0
7 -0.26445 -2.98672 5.96428 0 0 0
8 -0.59349 -2.43614 6.68129 0 0 0
9 -1.10846 -2.82857 7.41558 0 0 0
10 -1.97813 -2.42335 7.59937 0 0 0
11 -2.73546 -2.92783 7.23882 0 0 0
12 -3.59801 -3.43373 7.33577 0 0 0
13 -4.34726 -2.99741 6.72470 0 0 0
14 -0.12434 -3.41760 5.10519 0 0 0
15 -0.93359 -3.97118 4.84638 0 0 0
16 -1.49899 -3.58284 4.08990 0 0 0
17 -2.37981 -3.28307 3.68667 0 0 0
18 -2.68705 -2.77698 4.43180 0 0 0
19 -3.62560 -2.36775 4.73179 0 0 0
20 0.51884 -2.53554 5.67878 0 0 0
21 1.48526 -2.35601 5.57835 0 0 0
22 1.43756 -2.64563 4.61801 0 0 0
23 1.77287 -1.86004 4.09533 0 0 0
24 1.60052 -1.42319 3.26981 0 0 0
25 1.87246 -0.48775 2.86069 0 0 0
26 2.75800 -0.37518 2.44369 0 0 0
27 2.55246 -0.39186 1.51139 0 0 0
28 2.45574 -1.18589 1.00922 0 0 0
29 2.42819 -1.54420 1.89073 0 0 0
30 3.31316 -1.13261 1.93416 0 0 0
31 3.05880 -1.38918 2.86124 0 0 0
32 2.50289 -0.86729 3.55946 0 0 0
33 2.70874 -1.57941 4.19974 0 0 0
34 3.54527 -1.74673 4.66164 0 0 0
35 3.88264 -1.38459 3.86258 0 0 0
36 4.38223 -0.55059 3.95738 0 0 0
37 4.46190 0.41788 3.77427 0 0 0
38 1.75718 0.41621 2.43517 0 0 0
39 2.46597 1.02904 2.23385 0 0 0
40 3.45446 0.91490 2.11162 0 0 0
41 3.76269 1.58145 1.49240 0 0 0
42 4.06368 2.25781 2.21201 0 0 0
43 4.36671 3.07055 2.54986 0 0 0
44 5.11279 2.84495 1.90520 0 0 0
45 6.01571 3.07264 2.34571 0 0 0
46 6.95630 2.79027 2.03519 0 0 0
47 7.10043 3.24409 1.20590 0 0 0
48 7.39889 3.83339 0.51473 0 0 0
49 7.00140 4.31131 -0.28712 0 0 0
50 5.11449 2.49054 2.90499 0 0 0
51 5.79727 2.31016 3.59566 0 0 0
52 6.74565 2.37606 3.23032 0 0 0
53 7.53560 2.57954 3.77591 0 0 0
54 7.99132 2.84519 4.56219 0 0 0
55 8.75035 2.90150 5.10187 0 0 0
56 3.77736 3.59239 1.96074 0 0 0
57 3.55648 3.82821 0.99932 0 0 0
58 3.93072 4.66418 0.72359 0 0 0
59 4.60839 5.28923 0.30849 0 0 0
60 5.43814 5.24576 0.87521 0 0 0
61 6.17721 5.54176 0.26108 0 0 0
62 5.96456 6.31042 0.91907 0 0 0
63 5.41815 7.19262 0.89446 0 0 0
64 5.82558 7.16747 1.72806 0 0 0
65 5.93534 7.95971 2.39906 0 0 0
66 5.10887 7.96702 2.85288 0 0 0
67 4.31703 7.27815 2.55602 0 0 0
68 6.10509 4.93001 -0.46539 0 0 0
69 5.67166 4.19498 -0.99870 0 0 0
70 5.13552 4.43969 -1.86516 0 0 0
71 4.76356 3.42569 -2.16508 0 0 0
72 3.94677 3.01498 -1.89197 0 0 0
73 3.00729 3.01758 -1.62654 0 0 0
74 6.60202 4.95631 1.01015 0 0 0
75 7.53294 5.21625 1.27300 0 0 0
76 8.18415 5.99040 1.21018 0 0 0
77 7.36707 6.51847 1.29783 0 0 0
78 7.10875 6.82470 0.37817 0 0 0
79 7.40037 7.69643 -0.17809 0 0 0
80 8.14386 7.07416 -0.37752 0 0 0
81 8.89307 6.65552 -0.83120 0 0 0
82 9.70269 6.77833 -1.42052 0 0 0
83 10.30087 6.81948 -2.28497 0 0 0
84 10.46518 7.29972 -3.03955 0 0 0
85 11.20730 7.71587 -3.59788 0 0 0
86 8.26303 7.99840 0.15369 0 0 0
87 7.89867 8.87221 0.03477 0 0 0
88 7.80433 8.52886 -0.83110 0 0 0
89 8.32918 8.23540 -1.61288 0 0 0
90 9.17231 8.44876 -2.17393 0 0 0
91 10.09091 8.58293 -2.13343 0 0 0
92 6.69909 8.04142 -0.74249 0 0 0
93 6.56647 8.25999 -1.71282 0 0 0
94 6.51975 7.31799 -2.05590 0 0 0
95 6.36288 6.46106 -2.47778 0 0 0
96 7.12478 5.83435 -2.62836 0 0 0
97 7.79828 5.53584 -3.22685 0 0 0
ITEM: TIMESTEP
6000
ITEM: NUMBER OF ATOMS
97
ITEM: BOX BOUNDS pp pp pp
-1.0000000000000000e+03 1.0000000000000000e+03
-1.0000000000000000e+03 1.0000000000000000e+03
-1.0000000000000000e+03 1.0000000000000000e+03
ITEM: ATOMS id x y z ix iy iz
1 -1.53874 -6.17412 6.48201 0 0 0
2 -1.88246 -6.98881 5.99190 0 0 0
3 -1.90119 -6.44657 5.20985 0 0 0
4 -2.13600 -5.55305 5.24703 0 0 0
5 -2.20234 -4.58787 5.52935 0 0 0
6 -1.25681 -4.38980 5.36544 0 0 0
7 -1.83655 -3.90028 4.77949 0 0 0
8 -2.66487 -3.59760 5.16980 0 0 0
9 -3.46296 -3.20904 5.39965 0 0 0
10 -3.19316 -2.28993 5.73065 0 0 0
11 -3.83851 -1.78147 6.23748 0 0 0
12 -2.97270 -1.49446 6.67174 0 0 0
13 -2.67550 -2.28024 7.10558 0 0 0
14 -1.38102 -3.78043 3.93527 0 0 0
15 -0.68252 -3.39682 3.27557 0 0 0
16 -0.28893 -3.37442 2.40974 0 0 0
17 -0.28269 -2.58775 1.89081 0 0 0
18 -0.12943 -1.67355 2.38149 0 0 0
19 -0.35356 -1.70493 1.45659 0 0 0
20 -1.55555 -3.21489 5.43306 0 0 0
21 -1.42299 -2.23039 5.30305 0 0 0
22 -0.84266 -1.44227 5.78159 0 0 0
23 -0.07461 -1.30748 5.23636 0 0 0
24 0.11412 -0.83381 4.33300 0 0 0
25 0.86989 -0.48519 3.82795 0 0 0
26 0.89741 -1.38409 3.57182 0 0 0
27 1.72045 -1.70920 3.02540 0 0 0
28 2.59563 -2.06908 2.88190 0 0 0
29 2.87567 -2.46827 1.96715 0 0 0
30 2.09255 -2.29835 1.32743 0 0 0
31 1.56364 -2.72770 0.67135 0 0 0
32 1.27332 -0.69390 4.74222 0 0 0
33 1.94006 -0.76834 5.41060 0 0 0
34 2.75915 -1.26608 5.23099 0 0 0
35 3.69135 -1.26368 5.56624 0 0 0
36 3.89059 -2.00113 6.11802 0 0 0
37 4.83313 -2.19376 5.94407 0 0 0
38 1.20754 0.43108 3.78154 0 0 0
39 1.34897 1.15516 4.42115 0 0 0
40 2.11792 1.50913 3.88471 0 0 0
41 2.35322 2.08653 3.07463 0 0 0
42 3.10131 2.69219 3.00782 0 0 0
43 4.01584 2.50168 3.26390 0 0 0
44 4.01396 2.65248 2.27970 0 0 0
45 4.86760 2.95188 1.88978 0 0 0
46 5.65964 3.28695 1.40435 0 0 0
47 6.62906 3.51698 1.58955 0 0 0
48 7.56124 3.96764 1.49978 0 0 0
49 7.65587 4.17124 0.57452 0 0 0
50 4.73441 2.12030 3.81199 0 0 0
51 4.60202 1.44468 4.49032 0 0 0
52 4.08474 1.60109 5.30126 0 0 0
53 4.75439 1.29039 5.88807 0 0 0
54 5.02314 1.20033 6.80149 0 0 0
55 5.48372 1.88105 7.46376 0 0 0
56 4.37644 3.35271 3.14969 0 0 0
57 4.95112 3.83340 2.52759 0 0 0
58 5.51450 4.41503 1.91883 0 0 0
59 5.88939 4.69392 1.15622 0 0 0
60 6.16283 5.68332 0.97294 0 0 0
61 6.59545 5.74174 0.00593 0 0 0
62 6.30933 6.64862 -0.25095 0 0 0
63 6.08437 7.31604 0.37954 0 0 0
64 5.26568 7.87425 0.25431 0 0 0
65 5.09029 8.85782 0.13590 0 0 0
66 4.17126 8.60437 0.35411 0 0 0
67 3.52634 7.89377 0.70727 0 0 0
68 6.11244 4.98015 -0.35488 0 0 0
69 6.06472 4.38499 -1.21330 0 0 0
70 5.74413 4.56203 -2.12627 0 0 0
71 4.97150 4.55613 -2.71580 0 0 0
72 4.32249 3.78356 -2.93006 0 0 0
73 4.22971 2.82366 -3.24795 0 0 0
74 7.41322 5.71994 -0.55971 0 0 0
75 8.32460 5.49515 -0.90516 0 0 0
76 7.85330 6.03964 -1.55277 0 0 0
77 8.74259 6.47651 -1.63736 0 0 0
78 8.82785 7.40873 -1.62307 0 0 0
79 9.10372 8.18529 -2.15567 0 0 0
80 9.94292 7.66464 -2.12968 0 0 0
81 10.69469 8.21856 -2.10052 0 0 0
82 11.37456 8.60348 -2.76851 0 0 0
83 11.72662 8.76670 -1.87040 0 0 0
84 11.80155 8.79941 -0.91626 0 0 0
85 12.52796 9.26601 -0.35242 0 0 0
86 8.76863 8.75368 -1.48548 0 0 0
87 9.19821 9.56890 -1.28378 0 0 0
88 10.09217 10.10435 -1.40742 0 0 0
89 9.40739 10.83250 -1.61964 0 0 0
90 9.91947 11.67913 -1.85311 0 0 0
91 9.89192 12.61840 -2.35109 0 0 0
92 8.15020 8.05282 -2.31709 0 0 0
93 8.58660 7.17007 -2.75842 0 0 0
94 8.11389 7.54913 -3.49768 0 0 0
95 8.56345 7.84842 -4.33064 0 0 0
96 8.67339 8.60072 -4.89159 0 0 0
97 9.30645 8.48089 -5.58749 0 0 0
ITEM: TIMESTEP
7000
ITEM: NUMBER OF ATOMS
97
ITEM: BOX BOUNDS pp pp pp
-1.0000000000000000e+03 1.0000000000000000e+03
-1.0000000000000000e+03 1.0000000000000000e+03
-1.0000000000000000e+03 1.0000000000000000e+03
ITEM: ATOMS id x y z ix iy iz
1 -2.53132 -5.00875 4.61330 0 0 0
2 -1.72815 -4.55058 4.89780 0 0 0
3 -1.51532 -3.53109 4.73618 0 0 0
4 -2.16056 -2.72747 4.67441 0 0 0
5 -2.45129 -1.95109 4.00037 0 0 0
6 -1.64193 -1.58929 4.30433 0 0 0
7 -0.93417 -0.94078 4.05816 0 0 0
8 -0.46278 -1.34652 4.77374 0 0 0
9 -0.08656 -1.99085 5.52004 0 0 0
10 -0.36092 -2.06851 6.46368 0 0 0
11 -1.17652 -2.16044 6.81020 0 0 0
12 -1.50034 -1.25172 7.01948 0 0 0
13 -1.14854 -1.29009 7.95146 0 0 0
14 -1.17281 -0.46787 3.21811 0 0 0
15 -2.03795 -0.14142 3.49554 0 0 0
16 -2.66776 0.01554 4.19914 0 0 0
17 -3.56011 0.41607 4.04118 0 0 0
18 -4.27245 -0.18534 3.73910 0 0 0
19 -4.83873 -0.62874 3.04100 0 0 0
20 -0.44195 -0.15279 4.43256 0 0 0
21 -1.25665 0.28067 4.86163 0 0 0
22 -1.56347 1.09190 4.45085 0 0 0
23 -0.76894 1.37860 3.99096 0 0 0
24 0.19927 1.38381 3.75735 0 0 0
25 0.91671 1.67518 4.34583 0 0 0
26 0.35152 1.08419 4.84107 0 0 0
27 1.14324 0.47587 4.55243 0 0 0
28 1.07264 0.06648 3.64351 0 0 0
29 0.80455 -0.36131 2.83460 0 0 0
30 1.04263 -1.21354 3.20815 0 0 0
31 1.31249 -2.17899 3.09581 0 0 0
32 1.41361 2.14449 5.05083 0 0 0
33 1.24084 1.42543 5.70438 0 0 0
34 1.37508 0.47134 6.10797 0 0 0
35 1.66567 -0.46047 6.36524 0 0 0
36 2.37078 -1.01212 5.80694 0 0 0
37 3.32806 -1.12784 6.03389 0 0 0
38 1.81577 1.48993 3.93691 0 0 0
39 2.76013 1.28218 4.04738 0 0 0
40 3.35208 0.58091 4.09169 0 0 0
41 4.26211 0.88777 3.88702 0 0 0
42 5.00958 1.51125 3.78787 0 0 0
43 5.70434 2.16060 4.10026 0 0 0
44 5.95627 1.80902 3.21534 0 0 0
45 6.41989 1.22436 2.61415 0 0 0
46 6.61384 1.08150 1.68201 0 0 0
47 7.01416 1.66559 1.02043 0 0 0
48 7.86241 1.86860 1.41923 0 0 0
49 8.13389 2.11806 0.45870 0 0 0
50 6.57727 2.27613 4.43492 0 0 0
51 6.56119 1.31895 4.64386 0 0 0
52 5.62062 0.93838 4.42449 0 0 0
53 5.70639 -0.00295 4.40166 0 0 0
54 6.67604 -0.17378 4.50166 0 0 0
55 7.39326 -0.57025 5.00127 0 0 0
56 6.03645 2.87506 3.49503 0 0 0
57 6.28187 3.20112 2.62528 0 0 0
58 6.06598 3.94177 2.06837 0 0 0
59 5.92209 4.90972 2.27025 0 0 0
60 5.64093 5.68043 1.73199 0 0 0
61 6.05918 6.38776 1.23998 0 0 0
62 6.03339 7.36390 1.32461 0 0 0
63 5.31097 7.94757 0.98340 0 0 0
64 4.64497 7.48034 1.52947 0 0 0
65 4.62750 7.30557 2.55966 0 0 0
66 5.33695 7.86716 2.71139 0 0 0
67 6.24631 7.68996 2.39831 0 0 0
68 6.07422 5.67985 0.55078 0 0 0
69 5.22846 5.12728 0.67033 0 0 0
70 5.18993 5.11698 -0.35722 0 0 0
71 5.00099 5.31368 -1.25326 0 0 0
72 4.74314 6.11515 -0.79018 0 0 0
73 4.43583 5.89385 0.11063 0 0 0
74 7.03713 6.23659 1.01408 0 0 0
75 7.39604 5.99660 0.08836 0 0 0
76 7.55689 5.23457 -0.47755 0 0 0
77 8.19927 5.42412 -1.25787 0 0 0
78 8.53996 6.33948 -1.53763 0 0 0
79 9.44783 6.67593 -1.69331 0 0 0
80 10.20198 6.50723 -1.17222 0 0 0
81 11.01584 6.05629 -1.14623 0 0 0
82 10.97244 6.38719 -2.03667 0 0 0
83 11.66213 6.84104 -1.58261 0 0 0
84 12.53063 6.99472 -2.01542 0 0 0
85 13.48862 6.94061 -1.89865 0 0 0
86 9.00099 7.53237 -1.69273 0 0 0
87 9.44422 7.96439 -2.42644 0 0 0
88 9.76585 8.30047 -1.56683 0 0 0
89 9.30651 8.92849 -1.03564 0 0 0
90 8.37415 8.94008 -1.29019 0 0 0
91 7.62719 9.50648 -1.58835 0 0 0
92 9.00830 6.95862 -2.50899 0 0 0
93 8.38987 7.35503 -3.18613 0 0 0
94 7.53196 7.64878 -3.56040 0 0 0
95 6.94742 7.86356 -4.30769 0 0 0
96 6.78618 8.14380 -5.23606 0 0 0
97 5.99584 8.54714 -5.58772 0 0 0
ITEM: TIMESTEP
8000
ITEM: NUMBER OF ATOMS
97
ITEM: BOX BOUNDS pp pp pp
-1.0000000000000000e+03 1.0000000000000000e+03
-1.0000000000000000e+03 1.0000000000000000e+03
-1.0000000000000000e+03 1.0000000000000000e+03
ITEM: ATOMS id x y z ix iy iz
1 -1.37629 -1.62398 1.19154 0 0 0
2 -0.53417 -1.94899 1.63850 0 0 0
3 -0.76547 -1.57138 2.51025 0 0 0
4 -0.80493 -1.72051 3.45845 0 0 0
5 -0.49890 -1.91286 4.38851 0 0 0
6 -0.81877 -1.04646 4.85001 0 0 0
7 -1.00226 -0.10820 5.15729 0 0 0
8 -1.26393 0.56208 5.72222 0 0 0
9 -1.21790 -0.07252 6.40610 0 0 0
10 -1.41652 -0.99301 6.69852 0 0 0
11 -1.49746 -1.50444 7.53915 0 0 0
12 -2.08044 -1.31306 8.35637 0 0 0
13 -2.03679 -1.61917 9.30913 0 0 0
14 -1.18861 0.48059 4.30991 0 0 0
15 -1.71176 0.58649 3.45034 0 0 0
16 -2.40942 -0.02844 2.85329 0 0 0
17 -3.00446 -0.54638 3.34798 0 0 0
18 -3.98230 -0.69168 3.58540 0 0 0
19 -4.75912 -0.58413 3.03066 0 0 0
20 -0.28941 0.34084 5.65677 0 0 0
21 0.34732 0.48513 4.88663 0 0 0
22 0.47211 1.36359 4.65467 0 0 0
23 0.87619 2.08002 5.15868 0 0 0
24 1.70684 1.91068 5.54771 0 0 0
25 2.61512 1.72583 5.45694 0 0 0
26 3.12072 0.95361 5.23004 0 0 0
27 2.89819 0.59869 4.30754 0 0 0
28 1.93966 0.42259 4.17514 0 0 0
29 1.18236 -0.08252 3.94231 0 0 0
30 0.41690 0.47098 3.62030 0 0 0
31 -0.41298 0.93099 3.58299 0 0 0
32 2.32205 1.90862 6.46320 0 0 0
33 2.69387 1.56378 7.25764 0 0 0
34 2.51822 0.76645 7.80177 0 0 0
35 2.65638 -0.11392 8.19400 0 0 0
36 2.15506 -0.72552 7.61076 0 0 0
37 1.41276 -0.92334 6.81909 0 0 0
38 3.40389 2.34418 5.80740 0 0 0
39 4.37256 2.56380 5.40800 0 0 0
40 5.15218 2.34191 4.76623 0 0 0
41 6.03305 2.05307 4.42361 0 0 0
42 6.89885 2.46759 4.28301 0 0 0
43 7.84715 2.54622 4.21144 0 0 0
44 7.95897 2.34265 3.29144 0 0 0
45 8.08788 2.23046 2.28421 0 0 0
46 8.58206 1.49899 1.73874 0 0 0
47 8.03840 0.87386 1.30744 0 0 0
48 8.17534 0.01986 0.90470 0 0 0