ITEM: TIMESTEP
0
ITEM: NUMBER OF ATOMS
193
ITEM: BOX BOUNDS pp pp pp
-1.0000000000000000e+03 1.0000000000000000e+03
-1.0000000000000000e+03 1.0000000000000000e+03
-1.0000000000000000e+03 1.0000000000000000e+03
ITEM: ATOMS id x y z ix iy iz
1 0.00000 0.00000 0.00000 0 0 0
2 0.00000 0.00000 1.00000 0 0 0
3 0.00000 -0.50000 1.86603 0 0 0
4 0.00000 0.00000 2.73205 0 0 0
5 0.00000 -0.50000 3.59808 0 0 0
6 0.00000 0.00000 4.46410 0 0 0
7 0.00000 -0.50000 5.33013 0 0 0
8 0.00000 0.00000 6.19615 0 0 0
9 0.00000 -0.50000 7.06218 0 0 0
10 0.00000 0.00000 7.92820 0 0 0
11 0.00000 -0.50000 8.79423 0 0 0
12 0.00000 0.00000 9.66025 0 0 0
13 0.00000 -0.50000 10.52628 0 0 0
14 -0.00345 0.14944 11.28668 0 0 0
15 -0.00691 0.33167 12.26993 0 0 0
16 -0.01036 1.27431 12.60374 0 0 0
17 -0.01382 1.45654 13.58699 0 0 0
18 -0.01727 2.39918 13.92079 0 0 0
19 -0.02073 2.58141 14.90404 0 0 0
20 -0.02418 3.52405 15.23785 0 0 0
21 -0.02764 3.70628 16.22110 0 0 0
22 -0.03109 4.64891 16.55491 0 0 0
23 -0.03455 4.83115 17.53816 0 0 0
24 -0.03800 5.77378 17.87196 0 0 0
25 -0.04146 5.95601 18.85521 0 0 0
26 0.81807 -1.07249 10.58120 0 0 0
27 1.63615 -1.59573 10.34252 0 0 0
28 2.45422 -2.06406 10.67633 0 0 0
29 3.27229 -2.58731 10.43765 0 0 0
30 4.09037 -3.05563 10.77146 0 0 0
31 4.90844 -3.57888 10.53278 0 0 0
32 5.72651 -4.04721 10.86659 0 0 0
33 6.54459 -4.57045 10.62791 0 0 0
34 7.36266 -5.03878 10.96172 0 0 0
35 8.18073 -5.56203 10.72304 0 0 0
36 8.99881 -6.03035 11.05684 0 0 0
37 9.81688 -6.55360 10.81817 0 0 0
38 -0.81462 -1.07767 10.57821 0 0 0
39 -1.62924 -1.60391 10.33435 0 0 0
40 -2.44386 -2.07822 10.66816 0 0 0
41 -3.25847 -2.60446 10.42430 0 0 0
42 -4.07309 -3.07877 10.75810 0 0 0
43 -4.88771 -3.60501 10.51424 0 0 0
44 -5.70233 -4.07932 10.84805 0 0 0
45 -6.51695 -4.60556 10.60419 0 0 0
46 -7.33157 -5.07987 10.93799 0 0 0
47 -8.14619 -5.60611 10.69413 0 0 0
48 -8.96080 -6.08042 11.02794 0 0 0
49 -9.77542 -6.60666 10.78408 0 0 0
50 -9.97328 -6.48403 9.81155 0 0 0
51 -10.17113 -5.89157 9.03063 0 0 0
52 -10.36899 -6.27163 8.12708 0 0 0
53 -10.56684 -5.67917 7.34615 0 0 0
54 -10.76470 -6.05924 6.44260 0 0 0
55 -10.96255 -5.46677 5.66168 0 0 0
56 -11.16041 -5.84684 4.75813 0 0 0
57 -11.35826 -5.25438 3.97721 0 0 0
58 -11.55611 -5.63444 3.07366 0 0 0
59 -11.75397 -5.04198 2.29274 0 0 0
60 -11.95182 -5.42205 1.38919 0 0 0
61 -12.14968 -4.82958 0.60826 0 0 0
62 -10.55350 -6.28715 11.32492 0 0 0
63 -11.33158 -6.28087 11.95306 0 0 0
64 -12.10965 -5.73374 12.26169 0 0 0
65 -12.88773 -5.72746 12.88983 0 0 0
66 -13.66581 -5.18034 13.19846 0 0 0
67 -14.44388 -5.17405 13.82659 0 0 0
68 -15.22196 -4.62693 14.13522 0 0 0
69 -16.00004 -4.62065 14.76336 0 0 0
70 -16.77811 -4.07352 15.07199 0 0 0
71 -17.55619 -4.06724 15.70013 0 0 0
72 -18.33427 -3.52012 16.00876 0 0 0
73 -19.11234 -3.51384 16.63689 0 0 0
74 -9.61527 -7.57578 10.97156 0 0 0
75 -9.45511 -8.50881 10.64936 0 0 0
76 -9.29496 -9.25435 11.29629 0 0 0
77 -9.13480 -10.18738 10.97409 0 0 0
78 -8.97464 -10.93292 11.62101 0 0 0
79 -8.81449 -11.86595 11.29881 0 0 0
80 -8.65433 -12.61150 11.94574 0 0 0
81 -8.49418 -13.54452 11.62354 0 0 0
82 -8.33402 -14.29007 12.27047 0 0 0
83 -8.17387 -15.22309 11.94827 0 0 0
84 -8.01371 -15.96864 12.59519 0 0 0
85 -7.85356 -16.90167 12.27299 0 0 0
86 -8.23920 -17.55173 12.92774 0 0 0
87 -8.62484 -18.44208 13.16974 0 0 0
88 -9.01048 -18.67768 14.06180 0 0 0
89 -9.39612 -19.56803 14.30380 0 0 0
90 -9.78176 -19.80363 15.19586 0 0 0
91 -10.16740 -20.69397 15.43785 0 0 0
92 -10.55304 -20.92957 16.32991 0 0 0
93 -10.93868 -21.81992 16.57191 0 0 0
94 -11.32433 -22.05552 17.46397 0 0 0
95 -11.70997 -22.94587 17.70597 0 0 0
96 -12.09561 -23.18147 18.59803 0 0 0
97 -12.48125 -24.07181 18.84003 0 0 0
98 -6.87010 -17.06060 12.18606 0 0 0
99 -5.88665 -17.15478 12.03131 0 0 0
100 -4.90319 -17.33589 12.03549 0 0 0
101 -3.91974 -17.43007 11.88074 0 0 0
102 -2.93628 -17.61117 11.88492 0 0 0
103 -1.95283 -17.70535 11.73017 0 0 0
104 -0.96938 -17.88646 11.73435 0 0 0
105 0.01408 -17.98064 11.57960 0 0 0
106 0.99753 -18.16175 11.58378 0 0 0
107 1.98099 -18.25592 11.42903 0 0 0
108 2.96444 -18.43703 11.43321 0 0 0
109 3.94789 -18.53121 11.27846 0 0 0
110 -8.29099 -17.02702 11.38252 0 0 0
111 -8.72842 -16.69033 10.54867 0 0 0
112 -9.16585 -17.24413 9.84018 0 0 0
113 -9.60327 -16.90745 9.00633 0 0 0
114 -10.04070 -17.46124 8.29783 0 0 0
115 -10.47813 -17.12456 7.46398 0 0 0
116 -10.91556 -17.67835 6.75549 0 0 0
117 -11.35299 -17.34167 5.92164 0 0 0
118 -11.79042 -17.89546 5.21314 0 0 0
119 -12.22785 -17.55878 4.37929 0 0 0
120 -12.66528 -18.11257 3.67080 0 0 0
121 -13.10271 -17.77589 2.83695 0 0 0
122 -13.52332 -18.54046 2.34857 0 0 0
123 -13.94393 -18.95841 1.54333 0 0 0
124 -14.36454 -19.86474 1.50266 0 0 0
125 -14.78515 -20.28269 0.69743 0 0 0
126 -15.20576 -21.18902 0.65676 0 0 0
127 -15.62637 -21.60697 -0.14848 0 0 0
128 -16.04698 -22.51330 -0.18914 0 0 0
129 -16.46759 -22.93124 -0.99438 0 0 0
130 -16.88820 -23.83757 -1.03504 0 0 0
131 -17.30881 -24.25552 -1.84028 0 0 0
132 -17.72942 -25.16185 -1.88095 0 0 0
133 -18.15003 -25.57980 -2.68619 0 0 0
134 -12.41691 -17.34375 2.25135 0 0 0
135 -11.73111 -16.67671 1.96027 0 0 0
136 -11.04531 -16.59526 1.23705 0 0 0
137 -10.35951 -15.92822 0.94598 0 0 0
138 -9.67371 -15.84677 0.22276 0 0 0
139 -8.98791 -15.17972 -0.06832 0 0 0
140 -8.30211 -15.09828 -0.79154 0 0 0
141 -7.61630 -14.43123 -1.08261 0 0 0
142 -6.93050 -14.34979 -1.80583 0 0 0
143 -6.24470 -13.68274 -2.09691 0 0 0
144 -5.55890 -13.60130 -2.82012 0 0 0
145 -4.87310 -12.93425 -3.11120 0 0 0
146 -13.80596 -17.10630 3.07590 0 0 0
147 -14.50920 -16.64590 3.61764 0 0 0
148 -15.21244 -15.94654 3.48978 0 0 0
149 -15.91569 -15.48613 4.03152 0 0 0
150 -16.61893 -14.78678 3.90366 0 0 0
151 -17.32217 -14.32637 4.44540 0 0 0
152 -18.02541 -13.62701 4.31754 0 0 0
153 -18.72866 -13.16661 4.85928 0 0 0
154 -19.43190 -12.46725 4.73142 0 0 0
155 -20.13514 -12.00684 5.27316 0 0 0
156 -20.83839 -11.30748 5.14530 0 0 0
157 -21.54163 -10.84708 5.68704 0 0 0
158 -21.12219 -10.43027 6.49347 0 0 0
159 -20.70275 -10.47253 7.40027 0 0 0
160 -20.28331 -9.70835 7.89027 0 0 0
161 -19.86387 -9.75061 8.79707 0 0 0
162 -19.44443 -8.98642 9.28706 0 0 0
163 -19.02499 -9.02868 10.19386 0 0 0
164 -18.60555 -8.26450 10.68386 0 0 0
165 -18.18611 -8.30676 11.59066 0 0 0
166 -17.76667 -7.54257 12.08065 0 0 0
167 -17.34723 -7.58483 12.98745 0 0 0
168 -16.92779 -6.82065 13.47745 0 0 0
169 -16.50835 -6.86290 14.38425 0 0 0
170 -22.22947 -11.51288 5.97615 0 0 0
171 -22.91731 -12.23403 5.89364 0 0 0
172 -23.60515 -12.66607 6.47692 0 0 0
173 -24.29299 -13.38723 6.39440 0 0 0
174 -24.98083 -13.81927 6.97768 0 0 0
175 -25.66867 -14.54042 6.89517 0 0 0
176 -26.35651 -14.97246 7.47845 0 0 0
177 -27.04435 -15.69362 7.39593 0 0 0
178 -27.73219 -16.12566 7.97921 0 0 0
179 -28.42003 -16.84682 7.89670 0 0 0
180 -29.10787 -17.27886 8.47998 0 0 0
181 -29.79571 -18.00001 8.39746 0 0 0
182 -21.97747 -10.13703 5.13398 0 0 0
183 -22.41331 -9.24558 5.01005 0 0 0
184 -22.84915 -8.90718 4.17607 0 0 0
185 -23.28499 -8.01573 4.05214 0 0 0
186 -23.72084 -7.67733 3.21815 0 0 0
187 -24.15668 -6.78588 3.09422 0 0 0
188 -24.59252 -6.44748 2.26024 0 0 0
189 -25.02836 -5.55603 2.13631 0 0 0
190 -25.46420 -5.21763 1.30232 0 0 0
191 -25.90004 -4.32618 1.17839 0 0 0
192 -26.33588 -3.98778 0.34441 0 0 0
193 -26.77172 -3.09633 0.22048 0 0 0
ITEM: TIMESTEP
1000
ITEM: NUMBER OF ATOMS
193
ITEM: BOX BOUNDS pp pp pp
-1.0000000000000000e+03 1.0000000000000000e+03
-1.0000000000000000e+03 1.0000000000000000e+03
-1.0000000000000000e+03 1.0000000000000000e+03
ITEM: ATOMS id x y z ix iy iz
1 -1.07287 -2.45483 4.69983 0 0 0
2 -1.39700 -1.59854 4.34888 0 0 0
3 -1.50441 -0.74155 3.81681 0 0 0
4 -1.05711 -0.59664 4.70922 0 0 0
5 -0.56890 0.20028 4.48499 0 0 0
6 -0.92387 1.05066 4.85475 0 0 0
7 -1.24890 1.06626 5.79161 0 0 0
8 -1.71750 1.34356 6.64450 0 0 0
9 -0.79453 1.53678 6.92096 0 0 0
10 -0.78493 1.28813 7.89219 0 0 0
11 -0.50421 1.11244 8.74674 0 0 0
12 0.03123 0.38488 9.18346 0 0 0
13 -0.26619 0.21166 10.09936 0 0 0
14 0.06740 0.52979 10.97603 0 0 0
15 -0.10163 1.05075 11.83029 0 0 0
16 -0.18410 0.76850 12.70676 0 0 0
17 0.03257 1.36055 13.49408 0 0 0
18 0.19432 2.22427 13.85100 0 0 0
19 -0.46745 2.78355 13.40469 0 0 0
20 -0.77640 3.62018 13.79866 0 0 0
21 -0.28465 3.90286 14.57485 0 0 0
22 0.05646 3.36270 15.31637 0 0 0
23 -0.89880 3.51198 15.60514 0 0 0
24 -0.98725 4.39473 16.03874 0 0 0
25 -1.78739 4.25338 15.42915 0 0 0
26 0.28089 -0.40429 10.65272 0 0 0
27 0.87594 -1.13957 10.96338 0 0 0
28 1.47774 -1.70759 10.44780 0 0 0
29 2.14961 -2.16305 9.93518 0 0 0
30 2.90069 -2.82567 10.24617 0 0 0
31 3.23112 -3.54727 9.67313 0 0 0
32 3.40285 -3.87562 8.80843 0 0 0
33 3.91359 -4.72679 8.85465 0 0 0
34 4.79997 -4.29705 8.78107 0 0 0
35 5.72432 -4.18200 9.01075 0 0 0
36 6.27176 -3.96366 8.19744 0 0 0
37 7.01651 -3.50478 7.51835 0 0 0
38 -1.18065 0.44089 10.39482 0 0 0
39 -1.81183 -0.24247 10.75556 0 0 0
40 -2.72975 -0.70294 10.58980 0 0 0
41 -3.21331 -1.34956 11.16211 0 0 0
42 -3.69130 -2.15162 11.52004 0 0 0
43 -4.57857 -2.25695 11.98376 0 0 0
44 -5.39530 -2.75375 11.54422 0 0 0
45 -6.38845 -2.64369 11.44638 0 0 0
46 -7.11282 -3.18706 11.13417 0 0 0
47 -7.52392 -4.09193 11.02063 0 0 0
48 -8.29864 -4.66930 10.72552 0 0 0
49 -9.08639 -5.22605 10.74605 0 0 0
50 -9.12457 -4.50768 10.07009 0 0 0
51 -8.30342 -4.07458 9.85938 0 0 0
52 -8.25980 -3.67015 8.96496 0 0 0
53 -9.14403 -3.99384 8.71822 0 0 0
54 -9.82722 -4.56380 8.23051 0 0 0
55 -9.96684 -5.49021 7.67152 0 0 0
56 -9.48055 -5.27257 6.89400 0 0 0
57 -9.67112 -6.04612 6.23894 0 0 0
58 -9.36202 -6.43036 5.39394 0 0 0
59 -9.61854 -6.50307 4.44343 0 0 0
60 -9.03864 -7.14515 3.84289 0 0 0
61 -9.55114 -6.96691 3.02150 0 0 0
62 -10.08191 -5.40336 10.51354 0 0 0
63 -10.94970 -5.88686 10.45572 0 0 0
64 -10.80502 -6.21032 11.28737 0 0 0
65 -10.87913 -6.28258 12.28643 0 0 0
66 -10.95175 -6.43155 13.27942 0 0 0
67 -10.88209 -6.77582 14.16284 0 0 0
68 -10.85838 -6.04814 14.89107 0 0 0
69 -11.16067 -5.43064 15.52938 0 0 0
70 -11.90769 -6.06162 15.85927 0 0 0
71 -12.76781 -6.08857 16.30418 0 0 0
72 -12.75207 -5.70866 15.35920 0 0 0
73 -13.55942 -5.17904 15.59947 0 0 0
74 -8.71500 -6.15574 10.94724 0 0 0
75 -8.46035 -7.09772 10.74097 0 0 0
76 -8.27748 -7.83190 10.15962 0 0 0
77 -8.28438 -8.72069 10.56595 0 0 0
78 -9.03152 -9.42898 10.37743 0 0 0
79 -9.49940 -10.30184 10.42951 0 0 0
80 -9.75765 -11.17525 10.73538 0 0 0
81 -9.28032 -12.00872 10.58605 0 0 0
82 -8.94732 -12.94968 10.43125 0 0 0
83 -8.31883 -13.58260 10.00487 0 0 0
84 -8.50310 -14.56958 10.18201 0 0 0
85 -7.98427 -15.33143 9.84317 0 0 0
86 -8.29195 -16.31263 9.98233 0 0 0
87 -8.27988 -17.03016 10.60484 0 0 0
88 -8.29659 -17.61748 11.40725 0 0 0
89 -7.63245 -18.37758 11.35970 0 0 0
90 -7.54580 -18.39103 12.36618 0 0 0
91 -7.29317 -18.69461 13.26168 0 0 0
92 -6.69534 -18.90192 13.99800 0 0 0
93 -7.66370 -19.15204 14.12420 0 0 0
94 -8.39827 -18.98865 14.64308 0 0 0
95 -8.73141 -19.70010 15.26155 0 0 0
96 -9.22760 -20.50286 15.18915 0 0 0
97 -9.12639 -21.05022 16.00366 0 0 0
98 -7.16692 -15.71550 9.51818 0 0 0
99 -6.48381 -16.28279 9.88165 0 0 0
100 -5.85556 -16.08878 10.53966 0 0 0
101 -5.07475 -16.46274 10.89185 0 0 0
102 -4.09997 -16.53398 10.85865 0 0 0
103 -3.38847 -17.19031 10.85262 0 0 0
104 -3.32304 -18.09222 11.24601 0 0 0
105 -3.43535 -19.03813 11.06754 0 0 0
106 -2.83581 -19.48193 11.64251 0 0 0
107 -3.00068 -20.23722 12.20551 0 0 0
108 -2.65551 -21.17362 12.21986 0 0 0
109 -2.49889 -21.99573 12.75585 0 0 0
110 -8.87488 -15.55497 9.40393 0 0 0
111 -9.43803 -16.40541 9.37071 0 0 0
112 -10.11606 -17.05701 9.27016 0 0 0
113 -10.93090 -17.56493 8.90787 0 0 0
114 -11.30543 -17.50681 7.98029 0 0 0
115 -12.12755 -17.24116 7.54324 0 0 0
116 -12.85361 -17.12696 6.86490 0 0 0
117 -12.94266 -16.63051 6.00306 0 0 0
118 -12.87171 -16.83303 5.01182 0 0 0
119 -13.49908 -17.52298 4.64150 0 0 0
120 -13.36361 -17.65920 3.62705 0 0 0
121 -13.80528 -17.66859 2.81954 0 0 0
122 -14.44741 -18.39948 2.68187 0 0 0
123 -15.34551 -18.66726 3.14048 0 0 0
124 -16.15093 -19.27602 2.87644 0 0 0
125 -16.86953 -19.79063 2.32990 0 0 0
126 -16.92839 -19.37738 1.41446 0 0 0
127 -16.72715 -18.64331 0.82799 0 0 0
128 -17.24199 -18.25867 0.03271 0 0 0
129 -17.03575 -19.03907 -0.54886 0 0 0
130 -16.90384 -19.96092 -0.80168 0 0 0
131 -17.26637 -20.24260 -1.64884 0 0 0
132 -17.75460 -19.55535 -2.28361 0 0 0
133 -17.61781 -19.00035 -3.11031 0 0 0
134 -13.33746 -17.08343 2.09288 0 0 0
135 -13.25035 -16.28088 1.51278 0 0 0
136 -12.78102 -15.71340 0.91559 0 0 0
137 -11.82819 -16.04444 0.45177 0 0 0
138 -11.76752 -16.89802 0.16815 0 0 0
139 -10.87656 -16.58592 -0.02658 0 0 0
140 -9.86641 -16.62153 -0.41414 0 0 0
141 -10.02167 -16.04423 0.38322 0 0 0
142 -9.92446 -15.12742 0.07256 0 0 0
143 -9.30834 -15.24752 -0.69244 0 0 0
144 -8.82004 -15.90047 -1.26822 0 0 0
145 -8.83126 -16.86719 -1.51956 0 0 0
146 -14.53191 -17.14299 2.47621 0 0 0
147 -15.13144 -16.42644 2.78653 0 0 0
148 -15.50481 -15.75388 3.32269 0 0 0
149 -15.68104 -15.49749 4.30597 0 0 0
150 -15.55607 -14.60867 4.63708 0 0 0
151 -16.23633 -14.11095 5.17589 0 0 0
152 -16.97990 -13.50253 5.03896 0 0 0
153 -17.97491 -13.38567 5.00709 0 0 0
154 -18.75545 -13.37861 5.56430 0 0 0
155 -19.55716 -12.87840 5.78129 0 0 0
156 -20.48854 -12.58361 5.53048 0 0 0
157 -20.94225 -11.88629 6.20021 0 0 0
158 -20.09616 -11.53712 6.54642 0 0 0
159 -19.77971 -10.64229 6.44737 0 0 0
160 -20.17547 -9.77273 6.79258 0 0 0
161 -19.79039 -10.05190 7.66859 0 0 0
162 -19.09509 -9.80376 8.34113 0 0 0
163 -18.95587 -9.07672 8.88562 0 0 0
164 -18.95161 -8.11429 9.27936 0 0 0
165 -18.21871 -7.80374 9.79796 0 0 0
166 -17.50535 -7.99237 10.36910 0 0 0
167 -16.64131 -7.74087 10.69506 0 0 0
168 -17.10595 -6.94403 11.00769 0 0 0
169 -16.85246 -6.02728 10.62724 0 0 0
170 -21.40964 -12.59839 6.81406 0 0 0
171 -21.75276 -13.40027 7.23087 0 0 0
172 -22.18297 -14.26312 7.10147 0 0 0
173 -22.18137 -15.07519 7.68705 0 0 0
174 -22.11236 -15.05174 8.64288 0 0 0
175 -22.85979 -14.46827 8.90321 0 0 0
176 -23.29192 -14.99669 9.61758 0 0 0
177 -24.06912 -15.28484 9.09237 0 0 0
178 -24.98849 -15.53690 8.94057 0 0 0
179 -24.74896 -16.13410 8.10678 0 0 0
180 -23.94064 -16.33306 8.55329 0 0 0
181 -23.60440 -17.30326 8.20559 0 0 0
182 -21.88263 -11.84889 5.94352 0 0 0
183 -22.34389 -11.55074 5.12254 0 0 0
184 -22.76764 -11.23853 4.29658 0 0 0
185 -23.19905 -10.35230 4.24647 0 0 0
186 -23.74434 -9.55265 4.19397 0 0 0
187 -23.24621 -8.75360 4.53621 0 0 0
188 -23.18386 -7.86871 5.03837 0 0 0
189 -23.47850 -6.95767 4.73243 0 0 0
190 -23.39059 -6.03913 4.43821 0 0 0
191 -23.57392 -5.45020 3.65969 0 0 0
192 -22.82740 -4.85058 3.27086 0 0 0
193 -22.44994 -4.72208 2.38195 0 0 0
ITEM: TIMESTEP
2000
ITEM: NUMBER OF ATOMS
193
ITEM: BOX BOUNDS pp pp pp
-1.0000000000000000e+03 1.0000000000000000e+03
-1.0000000000000000e+03 1.0000000000000000e+03
-1.0000000000000000e+03 1.0000000000000000e+03
ITEM: ATOMS id x y z ix iy iz
1 -4.50086 0.80943 5.52950 0 0 0
2 -3.59117 0.87480 5.86631 0 0 0
3 -3.56670 0.95299 6.76907 0 0 0
4 -3.51807 1.52127 7.53888 0 0 0
5 -2.59241 1.84287 7.44360 0 0 0
6 -2.28559 2.45353 8.12428 0 0 0
7 -1.66046 2.20663 7.48972 0 0 0
8 -1.16982 1.35690 7.17269 0 0 0
9 -1.09976 1.67481 8.16836 0 0 0
10 -0.91086 1.22214 9.06491 0 0 0
11 -0.15600 0.94481 9.58538 0 0 0
12 0.47351 0.52108 10.27911 0 0 0
13 -0.13620 -0.23087 10.09771 0 0 0
14 -1.07478 -0.31553 10.00905 0 0 0
15 -1.68230 0.37534 10.30494 0 0 0
16 -2.15161 1.20706 10.53625 0 0 0
17 -2.64600 1.35628 11.34100 0 0 0
18 -1.67126 1.23985 11.48305 0 0 0
19 -1.37216 1.37356 12.34277 0 0 0
20 -1.61292 2.19363 12.68770 0 0 0
21 -1.82575 2.76362 13.42747 0 0 0
22 -1.48211 3.28383 12.69957 0 0 0
23 -2.16913 2.98574 11.97817 0 0 0
24 -2.61598 2.87678 11.13784 0 0 0
25 -3.17708 2.23236 10.49340 0 0 0
26 0.66505 -0.75239 9.84093 0 0 0
27 1.33032 -1.39498 9.47732 0 0 0
28 2.21740 -1.90510 9.23022 0 0 0
29 2.72037 -2.51356 8.56623 0 0 0
30 3.45381 -2.94460 9.03011 0 0 0
31 4.22432 -3.38864 8.95849 0 0 0
32 4.57722 -3.54956 8.06059 0 0 0
33 4.02222 -3.61484 7.18206 0 0 0
34 3.10899 -3.20566 7.06047 0 0 0
35 2.35828 -3.75118 7.30721 0 0 0
36 2.07008 -3.82055 8.27928 0 0 0
37 1.20846 -3.52276 8.57866 0 0 0
38 -0.36226 -0.72222 9.24560 0 0 0
39 -1.07856 -1.24568 8.83744 0 0 0
40 -1.53791 -2.01447 9.18886 0 0 0
41 -2.26614 -2.51186 9.49783 0 0 0
42 -3.04994 -3.03781 9.48672 0 0 0
43 -3.92960 -3.46576 9.52490 0 0 0
44 -4.55243 -4.17579 9.48251 0 0 0
45 -4.70965 -4.88384 10.10723 0 0 0
46 -5.03779 -5.76310 10.48798 0 0 0
47 -5.50432 -5.37030 11.25041 0 0 0
48 -6.46120 -5.55376 11.28207 0 0 0
49 -7.17221 -6.12371 10.94105 0 0 0
50 -7.80461 -5.79947 10.22497 0 0 0
51 -8.49123 -5.64206 9.56536 0 0 0
52 -9.14057 -5.24253 8.91279 0 0 0
53 -9.67121 -4.76696 8.22341 0 0 0
54 -9.24515 -4.26214 7.45586 0 0 0
55 -10.15410 -3.93353 7.26800 0 0 0
56 -10.19514 -2.80111 7.20239 0 0 0
57 -10.98196 -2.19226 7.28989 0 0 0
58 -11.73551 -2.34330 7.83830 0 0 0
59 -12.33510 -2.91449 7.25845 0 0 0
60 -12.98998 -2.56236 6.55746 0 0 0
61 -13.44099 -3.10557 5.93265 0 0 0
62 -7.79762 -6.02207 11.68665 0 0 0
63 -8.75154 -5.73753 11.95687 0 0 0
64 -9.01282 -4.85930 12.35861 0 0 0
65 -8.41769 -5.33639 12.96473 0 0 0
66 -9.32161 -5.43198 13.32796 0 0 0
67 -9.91869 -5.66627 14.14734 0 0 0
68 -9.84820 -5.65376 15.12172 0 0 0
69 -10.58076 -5.35883 15.74062 0 0 0
70 -10.96864 -5.28566 16.57790 0 0 0
71 -10.94143 -6.04823 17.17462 0 0 0
72 -11.39147 -6.77058 16.67431 0 0 0
73 -10.64718 -7.24334 16.12306 0 0 0
74 -7.68538 -6.92035 10.74381 0 0 0
75 -7.85369 -7.82691 10.63163 0 0 0
76 -8.22912 -8.71822 10.76957 0 0 0
77 -7.37225 -9.19990 10.92617 0 0 0
78 -7.43573 -10.07835 10.54894 0 0 0
79 -7.72749 -10.94847 10.92998 0 0 0
80 -7.93385 -11.99747 11.13798 0 0 0
81 -7.70899 -13.03847 11.42990 0 0 0
82 -8.13333 -13.93390 11.46343 0 0 0
83 -8.26429 -14.92754 11.70803 0 0 0
84 -8.77494 -15.58571 11.15754 0 0 0
85 -8.99984 -16.37452 10.65980 0 0 0
86 -8.60171 -16.49481 9.73704 0 0 0
87 -7.67844 -17.01644 9.63359 0 0 0
88 -7.04116 -17.63097 10.11698 0 0 0
89 -7.33778 -18.53738 10.40012 0 0 0
90 -7.86537 -19.34374 10.37202 0 0 0
91 -8.19238 -20.27078 10.35613 0 0 0
92 -7.27070 -20.55111 10.39290 0 0 0
93 -6.73504 -20.57284 11.30115 0 0 0
94 -6.92164 -20.25446 12.20214 0 0 0
95 -7.12489 -20.81116 12.96054 0 0 0
96 -6.29379 -20.52445 13.30172 0 0 0
97 -5.32196 -20.49781 13.11001 0 0 0
98 -8.08532 -16.43272 11.06244 0 0 0
99 -7.20502 -16.28436 10.54761 0 0 0
100 -6.40773 -16.71995 10.25246 0 0 0
101 -5.72466 -17.25559 10.83195 0 0 0
102 -5.09114 -17.97761 11.15588 0 0 0
103 -4.67688 -18.38475 11.91399 0 0 0
104 -3.79669 -18.28080 12.32325 0 0 0
105 -4.54437 -17.56646 12.41421 0 0 0
106 -4.66211 -17.75193 13.36794 0 0 0
107 -3.78685 -17.66997 13.68545 0 0 0
108 -2.89525 -17.68261 14.19054 0 0 0
109 -2.79348 -16.84253 14.65077 0 0 0
110 -9.43446 -17.03714 10.14955 0 0 0
111 -9.80123 -17.42559 9.33149 0 0 0
112 -9.47822 -17.60985 8.45795 0 0 0
113 -10.33634 -17.82266 8.12080 0 0 0
114 -10.97027 -17.36757 7.46304 0 0 0
115 -11.65879 -17.20833 6.73838 0 0 0
116 -12.13008 -17.09564 5.85544 0 0 0
117 -11.93328 -17.17393 4.89388 0 0 0
118 -12.33369 -17.38396 4.00697 0 0 0
119 -13.26370 -17.33559 3.77882 0 0 0
120 -14.16083 -17.70131 3.52869 0 0 0
121 -15.12358 -17.40985 3.54439 0 0 0
122 -15.75098 -18.01787 3.08584 0 0 0
123 -15.29541 -18.39201 2.28299 0 0 0
124 -15.69340 -18.87451 1.56362 0 0 0
125 -15.89322 -18.85988 0.57171 0 0 0
126 -16.55489 -18.23023 0.20778 0 0 0
127 -17.34029 -18.81654 0.21816 0 0 0
128 -17.47464 -19.47483 -0.44411 0 0 0
129 -17.70656 -20.06802 -1.17248 0 0 0
130 -17.03202 -20.82121 -1.37270 0 0 0
131 -17.69253 -21.52281 -1.82437 0 0 0
132 -17.53226 -22.39980 -2.39041 0 0 0
133 -16.79089 -22.70523 -2.86029 0 0 0
134 -14.98497 -16.46702 3.64447 0 0 0
135 -14.50759 -16.26078 2.90149 0 0 0
136 -13.63907 -15.79991 2.85824 0 0 0
137 -12.64015 -15.67887 2.95642 0 0 0
138 -12.47581 -14.73574 2.83943 0 0 0
139 -12.17513 -13.98196 3.30038 0 0 0
140 -11.44222 -13.56532 3.92819 0 0 0
141 -11.20517 -13.98544 4.76544 0 0 0
142 -10.47330 -13.51886 5.14946 0 0 0
143 -9.99527 -14.31976 4.81621 0 0 0
144 -9.48789 -15.14237 4.61780 0 0 0
145 -9.21289 -15.22562 3.66908 0 0 0
146 -15.89031 -16.95823 3.28369 0 0 0
147 -16.60772 -16.57253 2.83388 0 0 0
148 -17.56037 -16.15360 2.69576 0 0 0
149 -18.33050 -16.11473 2.06491 0 0 0
150 -18.94711 -15.39562 2.42279 0 0 0
151 -18.92018 -15.09329 3.32996 0 0 0
152 -18.36833 -14.30669 3.44967 0 0 0
153 -17.97821 -13.56082 3.89112 0 0 0
154 -18.42169 -12.68262 4.09421 0 0 0
155 -18.88994 -11.74032 4.31819 0 0 0
156 -19.28444 -10.92288 4.76646 0 0 0
157 -19.87754 -10.84753 5.58705 0 0 0
158 -19.34635 -10.36450 6.26984 0 0 0
159 -18.35430 -10.41062 6.41855 0 0 0
160 -17.51446 -10.88197 6.74230 0 0 0
161 -17.01575 -11.42624 7.40465 0 0 0
162 -17.02605 -10.47968 7.92123 0 0 0
163 -16.52708 -9.74913 8.22189 0 0 0
164 -16.48852 -8.95325 8.84758 0 0 0
165 -16.47885 -8.44183 9.67011 0 0 0
166 -17.09177 -7.85174 10.22618 0 0 0
167 -17.98172 -7.75603 9.91357 0 0 0
168 -17.43350 -7.03399 9.49137 0 0 0
169 -17.97817 -6.14012 9.26181 0 0 0
170 -20.52350 -10.63151 4.86253 0 0 0
171 -20.53423 -10.95754 4.00426 0 0 0
172 -20.54491 -11.59034 3.25676 0 0 0
173 -20.35507 -12.23817 3.87827 0 0 0
174 -21.26338 -12.73595 3.74238 0 0 0
175 -21.34291 -13.61587 4.09264 0 0 0
176 -21.20255 -14.53685 3.79580 0 0 0
177 -21.30056 -14.61619 2.80025 0 0 0
178 -21.41280 -15.50519 3.01611 0 0 0
179 -21.84691 -16.42324 3.09739 0 0 0
180 -21.87509 -17.15238 3.75432 0 0 0
181 -21.79765 -17.21863 4.70920 0 0 0
182 -20.67314 -10.46512 5.84927 0 0 0
183 -21.74549 -10.72608 5.83892 0 0 0
184 -22.59946 -10.32829 5.38699 0 0 0
185 -23.30108 -9.71156 5.37466 0 0 0
186 -23.08717 -8.71910 5.21714 0 0 0
187 -23.07276 -7.97114 5.86310 0 0 0
188 -22.69680 -7.50117 5.15803 0 0 0
189 -22.35183 -7.29633 4.26740 0 0 0
190 -22.40234 -8.20758 3.85797 0 0 0
191 -21.63240 -8.73600 4.10776 0 0 0
192 -20.98453 -9.18547 3.63275 0 0 0
193 -20.19729 -8.84304 2.91248 0 0 0
ITEM: TIMESTEP
3000
ITEM: NUMBER OF ATOMS
193
ITEM: BOX BOUNDS pp pp pp
-1.0000000000000000e+03 1.0000000000000000e+03
-1.0000000000000000e+03 1.0000000000000000e+03
-1.0000000000000000e+03 1.0000000000000000e+03
ITEM: ATOMS id x y z ix iy iz
1 -4.56672 2.23992 8.58509 0 0 0
2 -4.48978 1.59542 7.78469 0 0 0
3 -4.69313 1.96403 6.89714 0 0 0
4 -3.96157 2.65988 6.89790 0 0 0
5 -4.44363 2.80308 5.99362 0 0 0
6 -3.92584 2.06547 5.64015 0 0 0
7 -3.37029 1.25541 5.72427 0 0 0
8 -2.48217 0.96631 5.91825 0 0 0
9 -1.64397 0.63073 6.43406 0 0 0
10 -1.02763 -0.14732 6.46330 0 0 0
11 -0.43923 -0.39149 7.16800 0 0 0
12 -0.82283 -0.92514 7.89969 0 0 0
13 -0.79619 -1.68076 8.50895 0 0 0
14 -0.76666 -1.06189 9.24335 0 0 0
15 -1.46071 -0.58696 8.79462 0 0 0
16 -2.35932 -0.83401 8.80636 0 0 0
17 -3.15369 -1.34792 8.81647 0 0 0
18 -3.13824 -1.65220 9.78492 0 0 0
19 -2.64745 -0.96622 10.30975 0 0 0
20 -2.94583 -0.64451 11.18531 0 0 0
21 -2.43686 -0.99563 11.96791 0 0 0
22 -2.18112 -0.67198 12.82253 0 0 0
23 -2.37352 0.32333 12.47508 0 0 0
24 -2.90203 0.77493 13.14278 0 0 0
25 -3.60711 1.53820 13.21663 0 0 0
26 0.05317 -1.20729 8.46029 0 0 0
27 0.49160 -0.38052 8.09280 0 0 0
28 1.26715 -0.12832 7.53329 0 0 0
29 1.97141 -0.29867 6.89857 0 0 0
30 2.94300 -0.35001 7.13810 0 0 0
31 2.61611 -1.13189 6.57648 0 0 0
32 2.61908 -1.98220 6.27484 0 0 0
33 2.67352 -2.82081 6.86781 0 0 0
34 3.62504 -2.70178 6.96289 0 0 0
35 3.63502 -3.68843 6.98923 0 0 0
36 3.38324 -4.17475 7.82510 0 0 0
37 3.20163 -5.01426 8.29943 0 0 0
38 -0.56867 -2.66319 8.54591 0 0 0
39 -1.44982 -3.31642 8.66081 0 0 0
40 -2.48252 -3.17431 8.94832 0 0 0
41 -3.48410 -3.24568 9.02546 0 0 0
42 -4.46634 -3.44622 9.25035 0 0 0
43 -5.11830 -4.22523 9.18673 0 0 0
44 -5.73085 -3.72081 8.53781 0 0 0
45 -6.54602 -3.60099 9.10322 0 0 0
46 -7.26384 -4.28036 9.06655 0 0 0
47 -7.74956 -4.84730 9.62445 0 0 0
48 -8.54799 -5.42790 9.47914 0 0 0
49 -9.10001 -5.84167 10.08935 0 0 0
50 -9.92022 -5.48372 9.79508 0 0 0
51 -10.70622 -5.32082 9.11038 0 0 0
52 -10.82931 -5.41334 8.19497 0 0 0
53 -11.01782 -4.42981 7.82572 0 0 0
54 -11.78647 -3.80976 8.04298 0 0 0
55 -11.93413 -2.92176 7.68357 0 0 0
56 -11.34604 -2.40864 7.18321 0 0 0
57 -10.43887 -2.02210 7.24898 0 0 0
58 -10.51283 -1.97984 6.28088 0 0 0
59 -11.13333 -1.60834 5.64637 0 0 0
60 -11.41268 -1.07043 6.44271 0 0 0
61 -10.92894 -0.48915 6.98557 0 0 0
62 -9.50224 -5.80719 11.00010 0 0 0
63 -10.03221 -6.05758 11.73668 0 0 0
64 -10.71170 -6.54501 12.32996 0 0 0
65 -10.74732 -6.71233 13.32746 0 0 0
66 -11.44127 -7.16431 13.86932 0 0 0
67 -11.93160 -7.81443 14.34202 0 0 0
68 -11.23054 -7.94198 15.00030 0 0 0
69 -10.98039 -7.78349 15.99827 0 0 0
70 -10.25882 -7.18870 15.78250 0 0 0
71 -9.89073 -6.82563 14.89825 0 0 0
72 -9.15268 -6.26713 15.05214 0 0 0
73 -8.25820 -5.81975 14.68329 0 0 0
74 -8.81830 -6.77050 9.96106 0 0 0
75 -8.54839 -7.70347 10.09295 0 0 0
76 -8.39442 -8.64421 10.01477 0 0 0
77 -8.07825 -9.44987 10.54172 0 0 0
78 -8.98816 -9.68607 10.93474 0 0 0
79 -9.81400 -10.18440 10.82272 0 0 0
80 -10.05608 -10.86702 10.10292 0 0 0
81 -9.42482 -11.51871 10.71801 0 0 0
82 -9.07336 -12.40686 10.38313 0 0 0
83 -8.68622 -13.22168 9.86012 0 0 0
84 -8.56711 -13.89148 9.17360 0 0 0
85 -8.13530 -14.69054 8.64636 0 0 0
86 -7.91781 -15.37951 8.05200 0 0 0
87 -8.38271 -16.19012 8.47179 0 0 0
88 -7.78011 -16.96843 8.57970 0 0 0
89 -7.77371 -18.04259 8.57550 0 0 0
90 -7.49448 -18.19149 9.56059 0 0 0
91 -7.50470 -18.01346 10.53327 0 0 0
92 -6.54401 -18.12960 10.84735 0 0 0
93 -5.92566 -18.31662 11.59267 0 0 0
94 -5.09727 -18.58065 12.06955 0 0 0
95 -4.82060 -19.41942 12.70105 0 0 0
96 -5.41039 -20.07637 13.24342 0 0 0
97 -6.12952 -20.73943 13.19273 0 0 0
98 -7.19985 -14.55848 8.61122 0 0 0
99 -6.52047 -14.35466 9.32121 0 0 0
100 -6.24731 -15.11546 9.93875 0 0 0
101 -5.75979 -15.13365 10.74931 0 0 0
102 -5.13629 -14.47522 11.18032 0 0 0
103 -5.24736 -14.26978 12.20478 0 0 0
104 -5.83488 -15.06254 12.12157 0 0 0
105 -6.24402 -15.89123 11.78080 0 0 0
106 -6.76816 -16.19891 11.06485 0 0 0
107 -6.15427 -16.22188 10.33855 0 0 0
108 -6.71286 -16.74381 9.76350 0 0 0
109 -7.15287 -16.00293 9.20829 0 0 0
110 -9.09566 -14.80782 8.38380 0 0 0
111 -9.79499 -15.55692 8.32643 0 0 0
112 -10.66010 -15.22812 8.01848 0 0 0
113 -11.57369 -15.42675 7.80849 0 0 0
114 -12.35118 -15.71157 7.33257 0 0 0
115 -13.31267 -15.74200 7.60095 0 0 0
116 -13.65835 -16.31245 6.81009 0 0 0
117 -14.28361 -16.47805 5.99265 0 0 0
118 -14.28466 -16.05906 5.16685 0 0 0
119 -14.72344 -16.41495 4.31122 0 0 0
120 -15.08549 -16.73729 3.45893 0 0 0
121 -15.68110 -16.83825 2.71444 0 0 0
122 -15.46180 -17.52448 1.94138 0 0 0
123 -14.84576 -18.21244 1.78123 0 0 0
124 -14.07445 -18.73019 1.62686 0 0 0
125 -13.46845 -19.46221 1.48425 0 0 0
126 -12.72179 -20.03460 1.38004 0 0 0
127 -12.31487 -20.58745 0.72264 0 0 0
128 -12.38433 -21.47368 0.92284 0 0 0
129 -12.30109 -22.41833 1.15363 0 0 0
130 -12.57622 -23.08571 0.43301 0 0 0
131 -13.49800 -23.26576 0.45880 0 0 0
132 -13.91391 -22.92547 -0.42981 0 0 0
133 -13.37666 -22.33785 -0.90047 0 0 0
134 -15.38292 -16.21683 2.02893 0 0 0
135 -14.71294 -15.54850 2.17035 0 0 0
136 -13.99053 -15.36155 2.80764 0 0 0
137 -13.09908 -15.35284 2.58984 0 0 0
138 -12.31090 -14.79980 2.74707 0 0 0
139 -11.47762 -14.59258 2.31105 0 0 0
140 -10.77864 -14.45020 1.62753 0 0 0
141 -10.19041 -13.62115 1.57185 0 0 0
142 -10.64667 -13.05774 2.19318 0 0 0
143 -10.72218 -12.82166 3.12393 0 0 0
144 -10.45226 -12.21304 3.81160 0 0 0
145 -11.18643 -11.68366 3.25547 0 0 0
146 -16.34397 -16.82480 3.48034 0 0 0
147 -16.55059 -16.61377 4.38962 0 0 0
148 -17.29098 -16.15054 4.76826 0 0 0
149 -17.43171 -15.18478 4.44041 0 0 0
150 -18.02687 -14.66035 5.04527 0 0 0
151 -18.35206 -13.73136 4.87055 0 0 0
152 -18.62984 -12.86997 5.13263 0 0 0
153 -18.38762 -11.98359 5.58306 0 0 0
154 -19.20769 -11.69143 4.97292 0 0 0
155 -20.10710 -11.47170 5.15734 0 0 0
156 -20.71389 -10.92663 5.65854 0 0 0
157 -20.82838 -9.97020 5.67357 0 0 0
158 -20.41004 -9.31646 6.25454 0 0 0
159 -19.86751 -9.92034 6.80472 0 0 0
160 -19.48420 -10.06169 7.87412 0 0 0
161 -19.67659 -9.18691 8.23283 0 0 0
162 -19.85507 -8.45468 8.82971 0 0 0
163 -20.53042 -8.36852 9.53055 0 0 0
164 -20.76081 -8.38764 10.53155 0 0 0
165 -19.99897 -8.14650 11.00725 0 0 0
166 -19.12104 -7.69099 11.04541 0 0 0
167 -19.16778 -6.69403 10.89486 0 0 0
168 -18.71401 -5.77956 11.22505 0 0 0
169 -18.70967 -5.54152 12.15925 0 0 0
170 -20.34417 -9.89406 4.79697 0 0 0
171 -20.79239 -10.27072 3.99275 0 0 0
172 -20.79696 -10.65848 2.98960 0 0 0
173 -20.81234 -11.27860 2.24123 0 0 0
174 -20.09483 -11.53629 2.84191 0 0 0
175 -20.62044 -11.97877 3.48683 0 0 0
176 -21.28240 -12.56746 3.06571 0 0 0
177 -20.69250 -13.14556 3.65790 0 0 0
178 -21.31736 -13.91928 3.87854 0 0 0
179 -20.83590 -14.27607 3.06930 0 0 0
180 -20.54755 -14.03064 2.13278 0 0 0
181 -20.83650 -14.37784 1.23491 0 0 0
182 -21.52473 -10.33326 5.10843 0 0 0
183 -21.70659 -11.03593 4.53590 0 0 0
184 -22.37221 -10.76674 3.93087 0 0 0
185 -23.33331 -10.40323 4.05733 0 0 0
186 -24.27970 -10.74182 4.25636 0 0 0
187 -25.12848 -10.76398 4.71076 0 0 0
188 -26.04704 -11.07885 4.32772 0 0 0
189 -25.23699 -11.64856 3.86698 0 0 0
190 -25.39717 -11.24444 2.94243 0 0 0
191 -25.11634 -10.29100 2.86872 0 0 0
192 -25.08243 -9.39649 2.46659 0 0 0
193 -24.34155 -8.97216 3.00403 0 0 0
ITEM: TIMESTEP
4000
ITEM: NUMBER OF ATOMS
193
ITEM: BOX BOUNDS pp pp pp
-1.0000000000000000e+03 1.0000000000000000e+03
-1.0000000000000000e+03 1.0000000000000000e+03
-1.0000000000000000e+03 1.0000000000000000e+03
ITEM: ATOMS id x y z ix iy iz
1 -6.05114 4.59765 4.36902 0 0 0
2 -5.61001 3.93033 3.79571 0 0 0
3 -6.11887 2.99560 4.05954 0 0 0
4 -6.49263 2.61646 4.88622 0 0 0
5 -6.24338 1.89569 5.41080 0 0 0
6 -6.03382 1.13806 6.01092 0 0 0
7 -5.08017 1.15577 6.33317 0 0 0
8 -4.22209 1.24131 6.72513 0 0 0
9 -3.39573 1.29969 6.18321 0 0 0
10 -2.53993 0.81910 5.86309 0 0 0
11 -2.25333 0.61473 6.85825 0 0 0
12 -1.54374 0.49030 7.47567 0 0 0
13 -1.59579 -0.45511 7.35554 0 0 0
14 -1.45332 -0.29623 8.34522 0 0 0