ITEM: TIMESTEP
0
ITEM: NUMBER OF ATOMS
100
ITEM: BOX BOUNDS pp pp pp
-1.0000000000000000e+03 1.0000000000000000e+03
-1.0000000000000000e+03 1.0000000000000000e+03
-1.0000000000000000e+03 1.0000000000000000e+03
ITEM: ATOMS id x y z ix iy iz
1 0.00000 0.00000 0.00000 0 0 0
2 0.00000 1.00000 0.00000 0 0 0
3 0.00000 1.86603 0.50000 0 0 0
4 0.00000 2.73205 0.00000 0 0 0
5 0.00000 3.59808 0.50000 0 0 0
6 0.00000 4.46410 0.00000 0 0 0
7 0.00000 5.33013 0.50000 0 0 0
8 0.00000 6.19615 0.00000 0 0 0
9 0.00000 7.06218 0.50000 0 0 0
10 0.00000 7.92820 0.00000 0 0 0
11 0.00000 8.79423 0.50000 0 0 0
12 0.00000 9.66025 0.00000 0 0 0
13 0.00000 10.52628 0.50000 0 0 0
14 0.00000 11.39230 0.00000 0 0 0
15 0.00000 12.25833 0.50000 0 0 0
16 0.00000 13.12436 0.00000 0 0 0
17 0.00000 13.99038 0.50000 0 0 0
18 0.00000 14.85641 0.00000 0 0 0
19 0.00000 15.72243 0.50000 0 0 0
20 0.00000 16.58846 0.00000 0 0 0
21 0.00000 17.45448 0.50000 0 0 0
22 0.00000 18.32051 0.00000 0 0 0
23 0.00000 19.18653 0.50000 0 0 0
24 0.00000 20.05256 0.00000 0 0 0
25 0.00000 20.91858 0.50000 0 0 0
26 0.00000 21.78461 0.00000 0 0 0
27 0.00000 22.65064 0.50000 0 0 0
28 0.00000 23.51666 0.00000 0 0 0
29 0.00000 24.38269 0.50000 0 0 0
30 0.00000 25.24871 0.00000 0 0 0
31 0.00000 26.11474 0.50000 0 0 0
32 0.00000 26.98076 0.00000 0 0 0
33 0.00000 27.84679 0.50000 0 0 0
34 0.00000 28.71281 0.00000 0 0 0
35 0.00000 29.57884 0.50000 0 0 0
36 0.00000 30.44486 0.00000 0 0 0
37 0.00000 31.31089 0.50000 0 0 0
38 0.00000 32.17691 0.00000 0 0 0
39 0.00000 33.04294 0.50000 0 0 0
40 0.00000 33.90897 0.00000 0 0 0
41 0.00000 34.77499 0.50000 0 0 0
42 0.00000 35.64102 0.00000 0 0 0
43 0.00000 36.50704 0.50000 0 0 0
44 0.00000 37.37307 0.00000 0 0 0
45 0.00000 38.23909 0.50000 0 0 0
46 0.00000 39.10512 0.00000 0 0 0
47 0.00000 39.97114 0.50000 0 0 0
48 0.00000 40.83717 0.00000 0 0 0
49 0.00000 41.70319 0.50000 0 0 0
50 0.00000 42.56922 0.00000 0 0 0
51 0.00000 43.43524 0.50000 0 0 0
52 0.00000 44.30127 0.00000 0 0 0
53 0.00000 45.16730 0.50000 0 0 0
54 0.00000 46.03332 0.00000 0 0 0
55 0.00000 46.89935 0.50000 0 0 0
56 0.00000 47.76537 0.00000 0 0 0
57 0.00000 48.63140 0.50000 0 0 0
58 0.00000 49.49742 0.00000 0 0 0
59 0.00000 50.36345 0.50000 0 0 0
60 0.00000 51.22947 0.00000 0 0 0
61 0.00000 52.09550 0.50000 0 0 0
62 0.00000 52.96152 0.00000 0 0 0
63 0.00000 53.82755 0.50000 0 0 0
64 0.00000 54.69358 0.00000 0 0 0
65 0.00000 55.55960 0.50000 0 0 0
66 0.00000 56.42563 0.00000 0 0 0
67 0.00000 57.29165 0.50000 0 0 0
68 0.00000 58.15768 0.00000 0 0 0
69 0.00000 59.02370 0.50000 0 0 0
70 0.00000 59.88973 0.00000 0 0 0
71 0.00000 60.75575 0.50000 0 0 0
72 0.00000 61.62178 0.00000 0 0 0
73 0.00000 62.48780 0.50000 0 0 0
74 0.00000 63.35383 0.00000 0 0 0
75 0.00000 64.21985 0.50000 0 0 0
76 0.00000 65.08588 0.00000 0 0 0
77 0.00000 65.95191 0.50000 0 0 0
78 0.00000 66.81793 0.00000 0 0 0
79 0.00000 67.68396 0.50000 0 0 0
80 0.00000 68.54998 0.00000 0 0 0
81 0.00000 69.41601 0.50000 0 0 0
82 0.00000 70.28203 0.00000 0 0 0
83 0.00000 71.14806 0.50000 0 0 0
84 0.00000 72.01408 0.00000 0 0 0
85 0.00000 72.88011 0.50000 0 0 0
86 0.00000 73.74613 0.00000 0 0 0
87 0.00000 74.61216 0.50000 0 0 0
88 0.00000 75.47818 0.00000 0 0 0
89 0.00000 76.34421 0.50000 0 0 0
90 0.00000 77.21024 0.00000 0 0 0
91 0.00000 78.07626 0.50000 0 0 0
92 0.00000 78.94229 0.00000 0 0 0
93 0.00000 79.80831 0.50000 0 0 0
94 0.00000 80.67434 0.00000 0 0 0
95 0.00000 81.54036 0.50000 0 0 0
96 0.00000 82.40639 0.00000 0 0 0
97 0.00000 83.27241 0.50000 0 0 0
98 0.00000 84.13844 0.00000 0 0 0
99 0.00000 85.00446 0.50000 0 0 0
100 0.00000 85.87049 0.00000 0 0 0
ITEM: TIMESTEP
1000
ITEM: NUMBER OF ATOMS
100
ITEM: BOX BOUNDS pp pp pp
-1.0000000000000000e+03 1.0000000000000000e+03
-1.0000000000000000e+03 1.0000000000000000e+03
-1.0000000000000000e+03 1.0000000000000000e+03
ITEM: ATOMS id x y z ix iy iz
1 -1.96397 4.99883 0.26438 0 0 0
2 -1.51147 4.79676 -0.53993 0 0 0
3 -0.59986 4.53911 -0.59536 0 0 0
4 0.01646 5.21738 -0.88281 0 0 0
5 -0.28978 6.13866 -0.75598 0 0 0
6 -0.56367 6.65216 -1.56403 0 0 0
7 -1.13141 7.24571 -1.96822 0 0 0
8 -1.00340 7.61566 -1.03556 0 0 0
9 -1.12196 8.08297 -0.18117 0 0 0
10 -1.22502 8.95433 0.34440 0 0 0
11 -0.89824 9.76567 0.77946 0 0 0
12 -0.63406 10.46291 1.41995 0 0 0
13 -0.28837 11.29611 1.00189 0 0 0
14 -0.09639 11.95904 0.29809 0 0 0
15 -0.50376 12.87163 -0.02740 0 0 0
16 -0.87810 13.75953 -0.31363 0 0 0
17 -0.79795 14.75410 -0.34858 0 0 0
18 -1.10739 15.76795 -0.43585 0 0 0
19 -1.90561 16.04164 0.05788 0 0 0
20 -2.29902 16.94525 -0.01143 0 0 0
21 -1.83193 17.85660 -0.09805 0 0 0
22 -1.67400 18.77424 0.21404 0 0 0
23 -1.13049 19.48159 -0.17100 0 0 0
24 -0.85223 20.24587 0.40882 0 0 0
25 -1.24049 21.11152 0.21117 0 0 0
26 -1.56323 22.00163 0.30189 0 0 0
27 -0.92199 22.64024 0.57308 0 0 0
28 -1.05127 23.68425 0.65048 0 0 0
29 -1.16084 24.69474 0.72702 0 0 0
30 -1.44993 25.59291 0.45873 0 0 0
31 -1.66660 26.50888 0.18075 0 0 0
32 -1.82714 27.43164 0.28268 0 0 0
33 -1.90722 28.40159 0.29757 0 0 0
34 -1.74104 29.33121 0.10361 0 0 0
35 -1.68360 29.94662 0.86479 0 0 0
36 -1.58309 30.71888 1.46557 0 0 0
37 -1.82832 31.54105 0.94117 0 0 0
38 -2.31739 32.19300 0.34105 0 0 0
39 -2.77113 32.96317 -0.04341 0 0 0
40 -2.51999 34.01067 0.02774 0 0 0
41 -1.93481 34.64265 -0.52715 0 0 0
42 -1.94824 35.57657 -0.38569 0 0 0
43 -1.62259 36.11121 0.37055 0 0 0
44 -0.99943 36.76917 0.62466 0 0 0
45 -0.90900 37.72996 0.27077 0 0 0
46 -0.76338 38.67694 0.35141 0 0 0
47 -0.73977 39.61281 -0.12672 0 0 0
48 -0.65595 40.60386 0.00869 0 0 0
49 -0.78129 41.71281 -0.09563 0 0 0
50 -0.92928 42.64355 0.28549 0 0 0
51 -0.79426 43.51965 0.83902 0 0 0
52 -0.38721 44.47555 0.87637 0 0 0
53 -0.57637 45.41318 0.36352 0 0 0
54 -0.99632 46.32678 0.07544 0 0 0
55 -1.34286 47.28817 0.40100 0 0 0
56 -1.24824 48.28328 0.22799 0 0 0
57 -1.65587 48.49057 -0.62705 0 0 0
58 -1.38447 49.38460 -0.93223 0 0 0
59 -1.54818 50.35182 -1.01445 0 0 0
60 -1.32868 51.34402 -0.76507 0 0 0
61 -1.09983 52.25351 -0.48168 0 0 0
62 -0.70273 52.91994 0.11743 0 0 0
63 -1.14178 53.72586 -0.07934 0 0 0
64 -0.99106 54.68457 -0.46377 0 0 0
65 -0.86654 55.65216 -0.11757 0 0 0
66 -0.84641 56.64481 0.12926 0 0 0
67 -1.39146 57.40937 0.28035 0 0 0
68 -0.88307 58.21314 0.37018 0 0 0
69 -1.59954 58.90710 0.34527 0 0 0
70 -1.31513 59.64886 1.05174 0 0 0
71 -1.56731 60.66834 1.14356 0 0 0
72 -0.98313 61.39455 0.68150 0 0 0
73 -1.00929 62.42581 0.73029 0 0 0
74 -0.47305 63.23369 0.70378 0 0 0
75 -0.38396 64.17602 0.78866 0 0 0
76 -0.41643 65.16166 0.72540 0 0 0
77 -0.89569 66.04156 0.59928 0 0 0
78 -0.82869 67.04843 0.91771 0 0 0
79 -0.75671 67.98866 0.77534 0 0 0
80 -0.59536 68.68740 0.16255 0 0 0
81 -0.79648 69.61083 0.19308 0 0 0
82 -0.76743 70.57924 -0.03545 0 0 0
83 -0.26951 70.86127 0.71529 0 0 0
84 0.07416 71.79904 0.71600 0 0 0
85 0.45472 72.73679 0.97522 0 0 0
86 1.36002 73.04658 1.01743 0 0 0
87 0.88911 73.74265 1.47391 0 0 0
88 0.67604 74.68431 1.21145 0 0 0
89 0.94835 75.52579 0.82513 0 0 0
90 0.41800 76.28902 0.70089 0 0 0
91 -0.02207 76.64000 -0.13426 0 0 0
92 0.18910 77.46202 0.21790 0 0 0
93 0.39473 78.37715 0.26407 0 0 0
94 -0.15301 79.14201 0.17452 0 0 0
95 -0.02343 80.00654 0.66367 0 0 0
96 -0.72926 80.43261 1.15058 0 0 0
97 -1.40842 79.79015 0.80504 0 0 0
98 -2.28601 80.28997 1.16420 0 0 0
99 -3.06631 80.18840 0.60442 0 0 0
100 -3.45133 79.52433 0.01808 0 0 0
ITEM: TIMESTEP
2000
ITEM: NUMBER OF ATOMS
100
ITEM: BOX BOUNDS pp pp pp
-1.0000000000000000e+03 1.0000000000000000e+03
-1.0000000000000000e+03 1.0000000000000000e+03
-1.0000000000000000e+03 1.0000000000000000e+03
ITEM: ATOMS id x y z ix iy iz
1 0.16298 4.71582 2.46049 0 0 0
2 -0.26982 5.45817 1.97664 0 0 0
3 -1.04387 5.97745 1.66972 0 0 0
4 -1.19103 6.78848 1.05736 0 0 0
5 -0.86869 7.61990 1.37422 0 0 0
6 -1.31007 8.46642 1.38044 0 0 0
7 -1.44891 8.82397 2.30216 0 0 0
8 -1.83473 9.67180 2.07743 0 0 0
9 -1.90868 10.61703 1.84857 0 0 0
10 -2.15258 11.59559 1.80509 0 0 0
11 -2.13458 12.50618 1.67867 0 0 0
12 -1.93998 13.31887 1.18704 0 0 0
13 -1.89174 14.08311 0.60298 0 0 0
14 -1.22335 14.84069 0.51504 0 0 0
15 -1.02258 15.35974 -0.31046 0 0 0
16 -1.19865 16.27657 -0.10464 0 0 0
17 -1.07704 16.46371 -1.09871 0 0 0
18 -0.72278 16.96053 -1.85724 0 0 0
19 0.12390 17.42864 -1.70676 0 0 0
20 -0.04657 17.95087 -0.85210 0 0 0
21 -0.25493 18.88165 -1.15075 0 0 0
22 -0.62719 19.71048 -0.71934 0 0 0
23 -0.25124 20.80570 -0.54357 0 0 0
24 -0.18559 21.82378 -0.56727 0 0 0
25 -0.18516 22.93952 -0.65457 0 0 0
26 -0.41486 23.88741 -0.81101 0 0 0
27 -0.67160 24.76172 -1.09876 0 0 0
28 -1.26297 25.46448 -1.00932 0 0 0
29 -0.59921 25.92671 -0.41627 0 0 0
30 -0.87164 26.39106 0.45320 0 0 0
31 -0.55063 27.28373 0.36404 0 0 0
32 -0.80180 28.26815 0.38873 0 0 0
33 -0.55717 29.10060 -0.04477 0 0 0
34 -0.56631 29.92965 -0.61509 0 0 0
35 -0.50990 30.69517 -0.05912 0 0 0
36 -0.73319 31.64542 -0.31205 0 0 0
37 -0.66508 32.53684 -0.79280 0 0 0
38 -0.31748 33.53263 -0.88587 0 0 0
39 -0.65310 34.51759 -1.02769 0 0 0
40 -1.22201 35.14913 -1.51685 0 0 0
41 -1.77212 35.89122 -1.25636 0 0 0
42 -2.11378 36.78115 -1.29254 0 0 0
43 -2.39811 37.68073 -1.41609 0 0 0
44 -2.19746 38.30049 -0.70432 0 0 0
45 -2.37282 39.24391 -0.56138 0 0 0
46 -2.36745 40.18509 -0.29528 0 0 0
47 -1.66014 40.87027 -0.09843 0 0 0
48 -1.05023 41.58712 -0.26527 0 0 0
49 -0.21219 42.10470 -0.26253 0 0 0
50 -0.23584 43.04240 -0.53742 0 0 0
51 -0.10227 44.02739 -0.36334 0 0 0
52 -0.89379 44.56019 -0.15952 0 0 0
53 -0.67335 45.04751 -0.93121 0 0 0
54 -1.19705 45.87077 -0.82554 0 0 0
55 -0.39334 46.52515 -1.17263 0 0 0
56 -0.27811 47.38082 -0.78558 0 0 0
57 -0.63276 48.27227 -0.46758 0 0 0
58 -1.00598 49.24170 -0.65523 0 0 0
59 -1.48795 50.05892 -0.62427 0 0 0
60 -1.80650 50.94099 -0.48813 0 0 0
61 -1.75357 51.89368 -0.10735 0 0 0
62 -1.84805 52.83559 -0.07184 0 0 0
63 -1.58976 53.67367 0.44716 0 0 0
64 -1.25732 54.49026 0.72111 0 0 0
65 -1.16538 55.49100 0.86923 0 0 0
66 -1.08444 56.27964 0.33545 0 0 0
67 -0.73769 57.17029 0.31643 0 0 0
68 -0.42495 58.06287 0.13153 0 0 0
69 -0.93037 58.84057 0.09270 0 0 0
70 -0.90690 59.85223 0.28984 0 0 0
71 -1.43237 60.69863 0.13751 0 0 0
72 -1.35004 61.61662 0.44400 0 0 0
73 -1.50226 62.58173 0.79028 0 0 0
74 -1.17773 63.45652 0.51228 0 0 0
75 -1.56169 64.37516 0.52207 0 0 0
76 -1.69491 65.18661 1.02020 0 0 0
77 -1.06269 65.69385 1.46500 0 0 0
78 -0.28217 66.32389 1.52356 0 0 0
79 -0.65670 67.20003 1.47729 0 0 0
80 -0.90637 68.08702 1.52325 0 0 0
81 -0.97914 68.99852 1.81624 0 0 0
82 -0.81850 69.92754 1.55631 0 0 0
83 -0.74524 70.89789 1.27526 0 0 0
84 -0.67396 71.91284 1.42606 0 0 0
85 -0.75457 72.76106 1.85497 0 0 0
86 -0.71811 73.80718 1.98048 0 0 0
87 0.05246 74.34936 2.14508 0 0 0
88 0.85536 74.33318 1.69707 0 0 0
89 1.28636 75.05096 1.24965 0 0 0
90 2.07223 75.35371 0.77854 0 0 0
91 1.52105 74.74659 0.25442 0 0 0
92 0.57527 74.94822 -0.13896 0 0 0
93 1.01667 75.80691 -0.45168 0 0 0
94 1.09308 76.76032 -0.16050 0 0 0
95 0.48479 77.50889 0.07958 0 0 0
96 -0.28181 77.43064 0.69091 0 0 0
97 -1.18151 77.25550 0.90848 0 0 0
98 -2.15753 77.30725 0.54073 0 0 0
99 -3.03750 77.60655 0.79453 0 0 0
100 -3.81720 77.99422 1.28485 0 0 0
ITEM: TIMESTEP
3000
ITEM: NUMBER OF ATOMS
100
ITEM: BOX BOUNDS pp pp pp
-1.0000000000000000e+03 1.0000000000000000e+03
-1.0000000000000000e+03 1.0000000000000000e+03
-1.0000000000000000e+03 1.0000000000000000e+03
ITEM: ATOMS id x y z ix iy iz
1 0.25276 8.00463 -1.88475 0 0 0
2 0.79182 7.48314 -1.28029 0 0 0
3 0.58314 8.29403 -0.72406 0 0 0
4 -0.15234 8.19990 -0.02653 0 0 0
5 -0.35499 9.17804 0.01313 0 0 0
6 -0.39782 9.64455 0.83578 0 0 0
7 -1.08698 9.74596 1.53373 0 0 0
8 -1.36619 10.03426 0.66255 0 0 0
9 -1.05123 10.91599 1.07758 0 0 0
10 -0.88502 11.80678 1.65392 0 0 0
11 -1.08753 12.78484 1.86101 0 0 0
12 -0.95292 13.75098 1.39020 0 0 0
13 -0.58449 14.66952 1.08835 0 0 0
14 -1.21212 15.31362 0.68490 0 0 0
15 -1.78135 16.19397 0.58380 0 0 0
16 -1.29828 17.05620 0.67648 0 0 0
17 -0.81570 17.54367 1.34491 0 0 0
18 -0.37443 18.13561 0.70278 0 0 0
19 -0.14989 19.01856 0.19553 0 0 0
20 -0.79053 19.65310 -0.11287 0 0 0
21 -0.66915 20.49726 -0.65839 0 0 0
22 -1.11476 21.05959 -1.34538 0 0 0
23 -1.33850 21.82760 -1.96926 0 0 0
24 -1.40899 22.51976 -1.28078 0 0 0
25 -1.26800 23.49828 -0.99579 0 0 0
26 -1.10873 24.04049 -1.81185 0 0 0
27 -1.18198 25.08484 -1.84793 0 0 0
28 -0.41535 25.73431 -1.67960 0 0 0
29 0.34144 26.38003 -1.59957 0 0 0
30 -0.19757 27.11821 -1.03294 0 0 0
31 0.01585 27.96648 -0.62472 0 0 0
32 0.24678 28.64750 -1.27346 0 0 0
33 -0.13862 29.48236 -0.91711 0 0 0
34 -0.43538 30.38149 -0.76653 0 0 0
35 -0.85123 31.24910 -0.78169 0 0 0
36 -0.47570 32.13335 -0.60308 0 0 0
37 -0.00213 32.87862 -0.17494 0 0 0
38 -0.55049 33.60027 0.15751 0 0 0
39 -0.27104 34.57423 0.04083 0 0 0
40 0.01673 35.14376 0.78080 0 0 0
41 0.24399 35.89325 1.30942 0 0 0
42 1.07545 36.12055 0.83316 0 0 0
43 1.23726 37.07775 0.41546 0 0 0
44 1.07967 38.09107 0.42804 0 0 0
45 1.59179 38.93303 0.37112 0 0 0
46 1.67042 39.78964 0.02069 0 0 0
47 1.60100 40.82411 -0.15676 0 0 0
48 1.44860 41.81401 -0.12038 0 0 0
49 1.46460 42.74391 0.06657 0 0 0
50 0.82950 43.33684 -0.31023 0 0 0
51 1.39438 44.06855 -0.47559 0 0 0
52 1.12150 44.87255 -0.07718 0 0 0
53 0.84630 45.79738 0.18902 0 0 0
54 0.56150 46.70445 -0.03255 0 0 0
55 -0.12796 47.16024 -0.48092 0 0 0
56 -0.59115 47.94879 -0.35648 0 0 0
57 -0.73044 48.73293 0.12451 0 0 0
58 -0.87458 49.63540 -0.13151 0 0 0
59 -1.08144 50.35217 -0.80323 0 0 0
60 -1.03812 50.83175 0.03984 0 0 0
61 -0.79261 51.68858 0.43634 0 0 0
62 -1.23665 52.59366 0.17310 0 0 0
63 -1.42954 53.58261 0.16931 0 0 0
64 -1.63538 54.51079 -0.13122 0 0 0
65 -1.49117 55.51679 -0.10647 0 0 0
66 -1.95054 56.29588 0.33931 0 0 0
67 -2.57874 56.88059 -0.20339 0 0 0
68 -2.89782 57.52175 0.46856 0 0 0
69 -2.63369 58.48654 0.72310 0 0 0
70 -3.24188 59.16541 0.50553 0 0 0
71 -3.48902 60.02784 1.02513 0 0 0
72 -3.15844 60.89622 0.80486 0 0 0
73 -2.77281 61.76223 0.67182 0 0 0
74 -3.02905 62.66384 1.07999 0 0 0
75 -3.22538 63.51931 0.72161 0 0 0
76 -2.66766 64.27682 1.07142 0 0 0
77 -2.86369 65.12926 0.72382 0 0 0
78 -2.22202 65.85181 0.53401 0 0 0
79 -2.34978 66.57764 1.26237 0 0 0
80 -2.30032 66.83220 2.19618 0 0 0
81 -2.03238 67.73384 2.17847 0 0 0
82 -1.19392 68.15481 2.41992 0 0 0
83 -0.90691 69.04819 2.08238 0 0 0
84 -0.79799 70.05658 2.21730 0 0 0
85 -0.23848 70.69753 1.79566 0 0 0
86 -0.02555 70.45434 0.89233 0 0 0
87 0.02650 70.88303 -0.00085 0 0 0
88 -0.50662 71.46757 0.70673 0 0 0
89 -1.11177 71.74008 1.42832 0 0 0
90 -0.65502 72.62523 1.64453 0 0 0
91 -0.14726 73.22263 1.14504 0 0 0
92 0.75609 73.48894 1.25428 0 0 0
93 0.85838 73.54665 0.30037 0 0 0
94 0.80970 74.46169 -0.18273 0 0 0
95 0.54654 75.01841 -0.91027 0 0 0
96 -0.43393 74.72575 -0.97968 0 0 0
97 -0.99018 75.50322 -1.23581 0 0 0
98 -1.83186 76.14044 -1.10280 0 0 0
99 -1.42069 76.99137 -0.75565 0 0 0
100 -0.88453 77.78788 -0.92821 0 0 0
ITEM: TIMESTEP
4000
ITEM: NUMBER OF ATOMS
100
ITEM: BOX BOUNDS pp pp pp
-1.0000000000000000e+03 1.0000000000000000e+03
-1.0000000000000000e+03 1.0000000000000000e+03
-1.0000000000000000e+03 1.0000000000000000e+03
ITEM: ATOMS id x y z ix iy iz
1 1.08745 11.86830 0.18176 0 0 0
2 0.82109 10.89140 -0.07187 0 0 0
3 1.47487 10.40366 0.34203 0 0 0
4 0.85941 9.98229 0.93825 0 0 0
5 -0.08122 9.74654 1.24213 0 0 0
6 -0.02777 10.57190 0.64988 0 0 0
7 -0.38934 11.09283 1.41173 0 0 0
8 -0.07363 11.94753 1.70402 0 0 0
9 -0.88451 12.28821 2.03490 0 0 0
10 -0.99163 13.22950 1.93958 0 0 0
11 -0.63616 14.17392 2.11675 0 0 0
12 -0.94537 14.69704 1.28891 0 0 0
13 -0.52808 15.41376 0.72252 0 0 0
14 -1.15247 15.95522 0.20032 0 0 0
15 -1.83284 16.42708 -0.19745 0 0 0
16 -1.42718 16.33125 -1.09752 0 0 0
17 -1.06354 17.26391 -1.42598 0 0 0
18 -1.15364 18.25822 -1.30624 0 0 0
19 -0.95879 19.21278 -0.87360 0 0 0
20 -0.88573 19.87254 -0.15620 0 0 0
21 -0.45977 20.43178 0.53871 0 0 0
22 -0.77193 21.15783 0.02350 0 0 0
23 -0.69368 21.96136 -0.56368 0 0 0
24 -1.44566 22.39234 -1.12873 0 0 0
25 -1.65748 23.31742 -0.91671 0 0 0
26 -0.90914 23.78769 -0.42996 0 0 0
27 -0.79106 24.70009 -0.03431 0 0 0
28 -0.43629 25.62047 0.02662 0 0 0
29 -0.83085 26.55311 0.18461 0 0 0
30 -1.08391 27.41307 0.60588 0 0 0
31 -1.04119 28.32200 1.25642 0 0 0
32 -0.25483 28.97516 1.50538 0 0 0
33 0.58132 29.24273 1.16789 0 0 0
34 0.34310 29.75847 0.32432 0 0 0
35 0.35249 30.66246 0.26826 0 0 0
36 0.34369 31.68292 0.40311 0 0 0
37 0.29996 32.69240 0.34720 0 0 0
38 0.49085 33.64243 0.27642 0 0 0
39 1.27099 34.16827 0.21847 0 0 0
40 1.11596 35.10027 -0.12794 0 0 0
41 0.59670 36.02784 -0.12130 0 0 0
42 0.34594 36.94093 -0.34629 0 0 0
43 0.71851 37.84970 -0.23127 0 0 0
44 0.16138 38.65533 -0.31134 0 0 0
45 0.44090 39.57199 -0.21762 0 0 0
46 -0.09218 40.49254 -0.32455 0 0 0
47 0.10218 41.46648 -0.02117 0 0 0
48 1.09998 41.70291 -0.02672 0 0 0
49 0.83828 42.39782 -0.58646 0 0 0
50 1.41109 43.18725 -0.78344 0 0 0
51 1.28141 44.04372 -0.46304 0 0 0
52 1.40355 44.39276 -1.34562 0 0 0
53 0.87109 45.18756 -0.88895 0 0 0
54 1.59534 45.92173 -0.58921 0 0 0
55 0.98683 46.69909 -0.34582 0 0 0
56 0.78635 47.60555 -0.11001 0 0 0
57 0.95185 48.53992 -0.05028 0 0 0
58 1.14455 49.43888 0.10276 0 0 0
59 0.96032 50.37605 0.34912 0 0 0
60 0.54651 51.04275 0.81477 0 0 0
61 0.60130 51.95282 1.30224 0 0 0
62 -0.14370 52.38986 0.92434 0 0 0
63 -0.63163 53.29049 0.88232 0 0 0
64 -0.28622 54.14964 1.30648 0 0 0
65 -0.64582 55.05750 1.38924 0 0 0
66 -0.91310 55.86693 0.99167 0 0 0
67 -0.30073 56.55203 0.53424 0 0 0
68 -0.75474 57.38636 0.27537 0 0 0
69 -0.76760 58.42368 0.25281 0 0 0
70 -0.41829 59.29176 0.54032 0 0 0
71 0.13672 59.47532 1.35948 0 0 0
72 0.18997 60.40343 0.88331 0 0 0
73 -0.38383 61.21932 1.29621 0 0 0
74 -0.07077 62.09237 1.52303 0 0 0
75 -0.46301 62.88718 1.81212 0 0 0
76 -1.25350 63.48290 1.65163 0 0 0
77 -1.03380 63.98294 2.42963 0 0 0
78 -0.98951 64.89121 2.76432 0 0 0
79 -1.93881 65.00907 2.94318 0 0 0
80 -2.17269 66.04406 2.90362 0 0 0
81 -2.88373 66.70859 2.65826 0 0 0
82 -3.23577 67.59136 2.96204 0 0 0
83 -3.55973 68.53631 3.19870 0 0 0
84 -3.53432 69.54562 2.95802 0 0 0
85 -3.23557 70.42426 2.60571 0 0 0
86 -2.49316 70.90879 2.15988 0 0 0
87 -2.88337 71.78594 2.17621 0 0 0
88 -2.43718 72.53766 1.79593 0 0 0
89 -1.96983 73.20918 1.29675 0 0 0
90 -1.13595 73.73683 1.35061 0 0 0
91 -0.19466 73.96857 1.29951 0 0 0
92 0.46868 74.56063 0.94333 0 0 0
93 0.96580 74.96806 0.19024 0 0 0
94 0.77303 75.57531 -0.58973 0 0 0
95 -0.08659 75.87927 -0.05984 0 0 0
96 -0.86176 75.67136 -0.65827 0 0 0
97 -1.66325 75.95548 0.03006 0 0 0
98 -1.22203 76.78268 -0.20584 0 0 0
99 -1.37174 76.96878 -1.21448 0 0 0
100 -1.21816 76.56445 -2.11797 0 0 0
ITEM: TIMESTEP
5000
ITEM: NUMBER OF ATOMS
100
ITEM: BOX BOUNDS pp pp pp
-1.0000000000000000e+03 1.0000000000000000e+03
-1.0000000000000000e+03 1.0000000000000000e+03
-1.0000000000000000e+03 1.0000000000000000e+03
ITEM: ATOMS id x y z ix iy iz
1 -1.18361 13.71412 -0.51641 0 0 0
2 -0.38010 13.44146 -0.97570 0 0 0
3 -0.14924 12.68909 -0.36616 0 0 0
4 0.16919 13.32938 0.33930 0 0 0
5 0.63340 13.64099 1.16182 0 0 0
6 0.16668 13.06275 1.84912 0 0 0
7 1.22526 12.83546 1.86067 0 0 0
8 1.64578 13.41975 2.45600 0 0 0
9 1.82064 14.12525 1.85380 0 0 0
10 1.85214 15.06587 1.53381 0 0 0
11 2.15985 15.96441 1.79419 0 0 0
12 1.53848 16.49192 1.26906 0 0 0
13 0.71125 16.14755 0.64963 0 0 0
14 1.02525 16.48059 -0.18529 0 0 0
15 0.56540 17.41786 -0.37245 0 0 0
16 0.39487 18.40561 -0.55748 0 0 0
17 -0.55585 18.95352 -0.49277 0 0 0
18 -0.36057 19.97098 -0.46619 0 0 0
19 -0.38260 20.85862 -0.85995 0 0 0
20 0.59458 21.12419 -0.67109 0 0 0
21 0.51449 21.72495 -1.41396 0 0 0
22 0.73036 22.72472 -1.58799 0 0 0
23 0.03856 23.45938 -1.51446 0 0 0
24 0.10451 24.36012 -1.81057 0 0 0
25 -0.21708 25.23605 -1.58377 0 0 0
26 0.11275 25.89109 -0.85582 0 0 0
27 -0.60450 26.53233 -0.69926 0 0 0
28 -0.01894 26.81499 -0.04278 0 0 0
29 0.66177 27.36522 0.38025 0 0 0
30 0.19801 28.20491 0.43016 0 0 0
31 0.15588 29.05449 -0.09468 0 0 0
32 0.69400 29.39265 0.68164 0 0 0
33 0.92361 29.75376 1.58234 0 0 0
34 0.51229 30.37295 2.13711 0 0 0
35 0.44511 31.31448 2.05643 0 0 0
36 0.81940 32.16950 1.76047 0 0 0
37 0.48974 32.05063 0.80088 0 0 0
38 0.40638 32.94702 0.68366 0 0 0
39 -0.11176 33.80763 0.75728 0 0 0
40 -0.44925 34.78317 0.79483 0 0 0
41 -0.49064 35.71951 0.31028 0 0 0
42 -0.56366 36.69136 0.22164 0 0 0
43 -0.17477 37.17765 1.03354 0 0 0
44 -0.46412 38.03820 0.89408 0 0 0
45 0.09536 38.74142 0.64411 0 0 0
46 0.63159 39.51148 0.23537 0 0 0
47 1.06640 40.32200 0.02856 0 0 0
48 1.45338 41.10503 0.40620 0 0 0
49 1.32875 42.05257 0.28595 0 0 0
50 0.89287 42.83541 0.63175 0 0 0
51 0.87517 43.80645 0.41148 0 0 0
52 0.68509 44.14555 -0.48213 0 0 0
53 0.48885 45.13412 -0.44340 0 0 0
54 0.57601 46.08373 -0.32078 0 0 0
55 0.39543 47.04919 -0.66504 0 0 0
56 -0.10506 47.84395 -0.94543 0 0 0
57 0.11709 48.73419 -1.30027 0 0 0
58 0.29091 49.69509 -1.45630 0 0 0
59 0.08791 50.67828 -1.92065 0 0 0
60 0.50891 51.43904 -1.52771 0 0 0
61 0.09950 52.09360 -0.87325 0 0 0
62 0.29944 53.03085 -0.74923 0 0 0
63 0.19203 53.68842 -0.00292 0 0 0
64 0.15639 54.35226 0.74404 0 0 0
65 -0.76672 54.62904 0.82503 0 0 0
66 -0.82823 55.62468 0.69820 0 0 0
67 -0.10852 56.26746 0.74300 0 0 0
68 0.26373 57.14303 0.69889 0 0 0
69 -0.18574 57.92775 1.11226 0 0 0
70 0.07059 58.70574 1.57446 0 0 0
71 -0.37389 59.52082 1.22927 0 0 0
72 -0.18709 60.46846 1.23243 0 0 0
73 -0.24809 61.46412 1.55172 0 0 0
74 -0.84227 62.01828 2.05624 0 0 0
75 -0.42546 62.81368 1.78002 0 0 0
76 -0.83826 63.56382 1.34483 0 0 0
77 -1.04552 64.52484 1.19479 0 0 0
78 -0.93852 64.70633 2.24389 0 0 0
79 -1.04008 65.60167 2.58917 0 0 0
80 -0.81709 66.52266 2.44346 0 0 0
81 -1.01022 67.41982 2.23365 0 0 0
82 -1.04270 68.34691 2.45323 0 0 0
83 -0.18850 68.43911 3.01996 0 0 0
84 0.23085 69.22359 3.55457 0 0 0
85 0.53891 69.12532 2.68052 0 0 0
86 0.37315 70.11419 2.83397 0 0 0
87 -0.02374 70.94232 2.50843 0 0 0
88 -0.59872 71.26094 3.18222 0 0 0
89 -1.19046 71.97752 3.03314 0 0 0
90 -1.55199 72.40483 2.25947 0 0 0
91 -1.51032 73.39672 1.99182 0 0 0
92 -0.56034 73.71858 1.77354 0 0 0
93 -0.39657 74.27696 1.03994 0 0 0
94 -0.51446 75.30594 0.76751 0 0 0
95 -0.17757 75.93762 0.05852 0 0 0
96 0.18473 76.78241 -0.10025 0 0 0
97 -0.50386 76.99203 -0.71511 0 0 0
98 0.33798 77.14596 -1.22411 0 0 0
99 0.11622 76.42965 -1.82299 0 0 0
100 -0.51079 76.68316 -2.62771 0 0 0
ITEM: TIMESTEP
6000
ITEM: NUMBER OF ATOMS
100
ITEM: BOX BOUNDS pp pp pp
-1.0000000000000000e+03 1.0000000000000000e+03
-1.0000000000000000e+03 1.0000000000000000e+03
-1.0000000000000000e+03 1.0000000000000000e+03
ITEM: ATOMS id x y z ix iy iz
1 -2.15490 10.24941 -0.89178 0 0 0
2 -2.19148 9.95681 0.01359 0 0 0
3 -2.01809 10.20257 0.91663 0 0 0
4 -1.50275 11.03962 1.11773 0 0 0
5 -0.62817 11.56648 1.16375 0 0 0
6 -0.34786 12.43901 1.49358 0 0 0
7 0.04721 13.09901 1.02847 0 0 0
8 0.15615 14.04486 0.73712 0 0 0
9 -0.21018 14.88837 1.20316 0 0 0
10 0.11936 15.83600 1.32335 0 0 0
11 0.92280 16.27332 0.95074 0 0 0
12 1.04165 17.21954 1.29219 0 0 0
13 1.52683 18.13524 1.36966 0 0 0
14 2.22050 18.68089 1.75808 0 0 0
15 2.73625 19.53203 1.73160 0 0 0
16 2.27158 19.72611 0.90216 0 0 0
17 1.35765 19.99035 0.85133 0 0 0
18 0.78223 20.37856 1.46105 0 0 0
19 0.66597 21.37655 1.31190 0 0 0
20 0.46019 22.32606 1.39188 0 0 0
21 1.00840 23.07527 1.12719 0 0 0
22 1.83154 23.31163 0.70779 0 0 0
23 2.69758 23.75270 0.62227 0 0 0
24 3.50318 23.83202 1.12980 0 0 0
25 3.59849 23.68101 2.09173 0 0 0
26 3.43982 24.19430 2.90288 0 0 0
27 3.86129 25.07353 3.05493 0 0 0
28 3.56103 26.02493 2.75671 0 0 0
29 3.64448 27.01388 2.39097 0 0 0
30 4.36509 27.78706 2.35147 0 0 0
31 4.72537 28.72292 2.22977 0 0 0
32 4.42734 29.36459 1.55569 0 0 0
33 4.00373 30.28843 1.23684 0 0 0
34 3.79048 31.26271 1.43457 0 0 0
35 4.28358 31.84570 0.84525 0 0 0
36 4.01278 32.73094 0.91806 0 0 0
37 3.25029 33.37106 0.62083 0 0 0
38 3.46292 34.31169 0.89212 0 0 0
39 2.95786 34.76745 1.65322 0 0 0
40 2.35468 35.52610 1.66414 0 0 0
41 2.13277 36.42381 1.37490 0 0 0
42 2.42560 37.15071 0.88149 0 0 0
43 1.79347 37.91296 0.65682 0 0 0
44 1.54040 38.73315 1.09099 0 0 0
45 1.31575 39.62118 1.14062 0 0 0
46 1.87576 40.35912 0.74846 0 0 0
47 1.91772 41.30210 0.95717 0 0 0
48 1.78843 42.28203 1.03431 0 0 0
49 1.31105 43.15405 0.90732 0 0 0
50 0.38197 43.48280 0.90114 0 0 0
51 0.23302 44.46983 0.93708 0 0 0
52 0.29095 45.46124 1.02212 0 0 0
53 -0.27848 46.20276 1.19386 0 0 0
54 -0.36885 47.16675 0.99492 0 0 0
55 -0.71615 48.06075 0.99394 0 0 0
56 -1.08010 48.52138 0.25369 0 0 0
57 -1.69786 49.24345 0.37204 0 0 0
58 -1.91541 50.11413 0.05949 0 0 0
59 -1.44856 50.71449 -0.48376 0 0 0
60 -1.18413 51.65025 -0.26768 0 0 0
61 -1.17185 52.12414 -1.16388 0 0 0
62 -1.40696 52.91279 -0.59279 0 0 0
63 -1.38445 53.78164 -0.11610 0 0 0
64 -0.98358 54.58599 0.26494 0 0 0
65 -1.04644 55.39689 -0.21215 0 0 0
66 -1.36511 56.27119 -0.56280 0 0 0
67 -0.62626 56.81610 -0.13936 0 0 0
68 -0.86523 57.75249 -0.24616 0 0 0
69 -1.01322 58.62372 0.10695 0 0 0
70 -1.02579 59.49248 0.50715 0 0 0
71 -0.26759 60.10644 0.85649 0 0 0
72 0.23641 60.06204 -0.05338 0 0 0
73 0.71304 60.84876 -0.41245 0 0 0
74 1.10746 61.73957 -0.34222 0 0 0
75 0.30681 62.20736 0.08849 0 0 0
76 0.09383 63.15417 -0.00677 0 0 0
77 0.30373 63.98246 0.47712 0 0 0
78 0.55892 64.96067 0.52433 0 0 0
79 0.92625 65.83482 0.87132 0 0 0
80 0.84200 66.51504 0.13184 0 0 0
81 0.57082 67.31594 0.69372 0 0 0
82 -0.01290 67.93617 1.21068 0 0 0
83 -0.46175 68.64072 1.68406 0 0 0
84 0.03890 69.45947 1.86601 0 0 0
85 -0.25903 70.30079 1.55910 0 0 0
86 -0.27249 71.16621 2.14668 0 0 0
87 -0.93756 71.86085 2.37500 0 0 0
88 -1.72926 71.61294 1.79550 0 0 0
89 -2.26788 71.78005 1.03330 0 0 0
90 -1.84513 71.54575 0.17764 0 0 0
91 -1.31559 71.02075 -0.46365 0 0 0
92 -0.60655 71.02283 -1.13951 0 0 0
93 -0.08575 71.89141 -1.04592 0 0 0
94 0.13962 72.43206 -0.28302 0 0 0
95 0.03222 73.33984 0.09276 0 0 0
96 -0.33709 73.97573 -0.50635 0 0 0
97 -1.08805 74.55177 -0.68533 0 0 0
98 -1.39224 75.25731 -1.32207 0 0 0
99 -1.33249 75.84583 -0.50453 0 0 0
100 -0.90801 75.73454 0.30882 0 0 0
ITEM: TIMESTEP
7000
ITEM: NUMBER OF ATOMS
100
ITEM: BOX BOUNDS pp pp pp
-1.0000000000000000e+03 1.0000000000000000e+03
-1.0000000000000000e+03 1.0000000000000000e+03
-1.0000000000000000e+03 1.0000000000000000e+03
ITEM: ATOMS id x y z ix iy iz
1 -1.17104 10.58104 2.19783 0 0 0
2 -0.24001 10.90356 2.28503 0 0 0
3 0.04764 11.61181 1.68735 0 0 0
4 -0.28670 12.50889 1.47139 0 0 0
5 -0.02948 13.02034 0.67234 0 0 0
6 -0.26510 13.81919 0.16910 0 0 0
7 -0.23366 14.54811 0.93660 0 0 0
8 0.18553 15.26088 1.47071 0 0 0
9 0.81651 15.77507 0.97453 0 0 0
10 1.41151 16.25908 0.48056 0 0 0
11 2.01565 17.03634 0.79312 0 0 0
12 2.26154 17.76164 1.48754 0 0 0
13 2.47761 18.48190 2.19420 0 0 0
14 2.61812 19.35852 1.69423 0 0 0
15 3.12581 19.62217 0.91288 0 0 0
16 3.75186 20.24724 1.45341 0 0 0
17 3.86420 21.15828 1.81759 0 0 0
18 3.93013 22.03218 2.32150 0 0 0
19 3.67839 22.26758 1.36756 0 0 0
20 3.71457 23.22635 1.20206 0 0 0
21 3.78338 24.15744 1.17825 0 0 0
22 4.36523 24.65148 0.57732 0 0 0
23 5.14733 24.95075 0.07018 0 0 0
24 5.98615 25.44624 0.32167 0 0 0
25 5.59165 26.23993 0.82436 0 0 0
26 4.88623 26.77419 1.30988 0 0 0
27 4.03911 26.45432 0.99174 0 0 0
28 3.50485 27.23288 0.91174 0 0 0
29 3.99275 27.71331 1.58970 0 0 0
30 3.07017 28.10804 1.77932 0 0 0
31 3.15181 29.07635 1.53189 0 0 0
32 3.64749 29.75565 1.03889 0 0 0
33 3.26683 30.68712 1.05077 0 0 0
34 4.04897 31.02466 1.43544 0 0 0
35 4.18522 32.04373 1.30129 0 0 0
36 4.19946 33.02357 1.33026 0 0 0
37 3.77965 33.85303 1.61269 0 0 0
38 2.95207 34.28928 1.79492 0 0 0
39 2.78379 35.26379 1.65179 0 0 0
40 2.45013 36.14822 1.32938 0 0 0
41 2.67906 36.82190 1.98214 0 0 0
42 2.40291 37.62561 2.51603 0 0 0
43 1.57947 38.22791 2.44838 0 0 0
44 1.84411 39.07364 2.85694 0 0 0
45 1.31301 39.77305 2.46480 0 0 0
46 1.16135 40.64589 2.81701 0 0 0
47 0.77705 41.61578 2.74589 0 0 0
48 0.39101 42.28377 2.14109 0 0 0
49 -0.14285 43.04452 1.71987 0 0 0
50 -0.23298 43.56780 0.92227 0 0 0
51 -0.22733 44.46322 0.54028 0 0 0
52 -0.87619 44.97735 0.08572 0 0 0
53 -1.18268 45.69712 0.61969 0 0 0
54 -1.49120 46.61572 0.33208 0 0 0
55 -1.77120 47.47456 0.81434 0 0 0
56 -1.88586 48.40380 0.98780 0 0 0
57 -1.25996 49.06371 0.63531 0 0 0
58 -1.08454 50.01592 0.66814 0 0 0
59 -0.79255 50.81759 0.99640 0 0 0
60 -1.23395 51.62059 1.26955 0 0 0
61 -1.64915 52.49643 1.26437 0 0 0
62 -1.40113 53.41086 1.34225 0 0 0
63 -1.82215 54.24670 1.53576 0 0 0
64 -1.10667 54.91638 1.33118 0 0 0
65 -0.98940 55.67492 0.70364 0 0 0
66 -1.30784 56.52018 0.33146 0 0 0
67 -0.97565 57.34930 0.72421 0 0 0
68 -0.50144 57.94628 1.33963 0 0 0
69 -0.08076 58.44656 2.07293 0 0 0
70 -0.20638 59.26535 1.60067 0 0 0
71 -0.72394 59.42235 0.76483 0 0 0
72 -0.93491 60.36221 0.90462 0 0 0
73 -0.60368 60.62087 1.78001 0 0 0
74 -0.33742 61.36715 2.54190 0 0 0
75 -0.23918 62.16656 3.10537 0 0 0
76 -0.66768 63.03501 3.31115 0 0 0
77 -0.05475 63.77862 3.56280 0 0 0
78 -0.45634 64.68394 3.64734 0 0 0
79 -0.45885 65.12054 2.76826 0 0 0
80 -0.80943 65.22158 1.85391 0 0 0
81 -0.10522 65.75061 1.33495 0 0 0
82 -0.64482 66.50052 1.39692 0 0 0
83 -0.84056 67.37689 0.90168 0 0 0
84 -1.12863 68.20555 1.21350 0 0 0
85 -1.13852 68.92304 1.93355 0 0 0
86 -0.59089 69.66712 2.12613 0 0 0
87 -0.19322 70.56964 2.20504 0 0 0
88 0.53678 71.19081 1.85565 0 0 0
89 0.53180 71.93279 2.35614 0 0 0
90 0.04978 72.32800 1.61575 0 0 0
91 -0.94672 72.26873 1.26372 0 0 0
92 -0.95384 71.95127 0.30309 0 0 0
93 -0.23539 72.51753 0.17165 0 0 0
94 0.41478 72.29312 -0.62705 0 0 0
95 0.65566 73.20173 -0.46372 0 0 0
96 0.97012 73.45534 0.46956 0 0 0
97 1.96775 73.47504 0.53988 0 0 0
98 2.46763 73.80514 -0.18702 0 0 0
99 2.93820 74.39756 -0.96913 0 0 0
100 2.70100 74.64545 -1.84483 0 0 0
ITEM: TIMESTEP
8000
ITEM: NUMBER OF ATOMS
100
ITEM: BOX BOUNDS pp pp pp
-1.0000000000000000e+03 1.0000000000000000e+03
-1.0000000000000000e+03 1.0000000000000000e+03
-1.0000000000000000e+03 1.0000000000000000e+03
ITEM: ATOMS id x y z ix iy iz
1 0.73348 13.65066 0.56057 0 0 0