ITEM: TIMESTEP
0
ITEM: NUMBER OF ATOMS
300
ITEM: BOX BOUNDS pp pp pp
-1.0000000000000000e+03 1.0000000000000000e+03
-1.0000000000000000e+03 1.0000000000000000e+03
-1.0000000000000000e+03 1.0000000000000000e+03
ITEM: ATOMS id x y z ix iy iz
1 0.00000 0.00000 0.00000 0 0 0
2 0.00000 1.00000 0.00000 0 0 0
3 0.00000 1.86603 0.50000 0 0 0
4 0.00000 2.73205 0.00000 0 0 0
5 0.00000 3.59808 0.50000 0 0 0
6 0.00000 4.46410 0.00000 0 0 0
7 0.00000 5.33013 0.50000 0 0 0
8 0.00000 6.19615 0.00000 0 0 0
9 0.00000 7.06218 0.50000 0 0 0
10 0.00000 7.92820 0.00000 0 0 0
11 0.00000 8.79423 0.50000 0 0 0
12 0.00000 9.66025 0.00000 0 0 0
13 0.00000 10.52628 0.50000 0 0 0
14 0.00000 11.39230 0.00000 0 0 0
15 0.00000 12.25833 0.50000 0 0 0
16 0.00000 13.12436 0.00000 0 0 0
17 0.00000 13.99038 0.50000 0 0 0
18 0.00000 14.85641 0.00000 0 0 0
19 0.00000 15.72243 0.50000 0 0 0
20 0.00000 16.58846 0.00000 0 0 0
21 0.00000 17.45448 0.50000 0 0 0
22 0.00000 18.32051 0.00000 0 0 0
23 0.00000 19.18653 0.50000 0 0 0
24 0.00000 20.05256 0.00000 0 0 0
25 0.00000 20.91858 0.50000 0 0 0
26 0.00000 21.78461 0.00000 0 0 0
27 0.00000 22.65064 0.50000 0 0 0
28 0.00000 23.51666 0.00000 0 0 0
29 0.00000 24.38269 0.50000 0 0 0
30 0.00000 25.24871 0.00000 0 0 0
31 0.00000 26.11474 0.50000 0 0 0
32 0.00000 26.98076 0.00000 0 0 0
33 0.00000 27.84679 0.50000 0 0 0
34 0.00000 28.71281 0.00000 0 0 0
35 0.00000 29.57884 0.50000 0 0 0
36 0.00000 30.44486 0.00000 0 0 0
37 0.00000 31.31089 0.50000 0 0 0
38 0.00000 32.17691 0.00000 0 0 0
39 0.00000 33.04294 0.50000 0 0 0
40 0.00000 33.90897 0.00000 0 0 0
41 0.00000 34.77499 0.50000 0 0 0
42 0.00000 35.64102 0.00000 0 0 0
43 0.00000 36.50704 0.50000 0 0 0
44 0.00000 37.37307 0.00000 0 0 0
45 0.00000 38.23909 0.50000 0 0 0
46 0.00000 39.10512 0.00000 0 0 0
47 0.00000 39.97114 0.50000 0 0 0
48 0.00000 40.83717 0.00000 0 0 0
49 0.00000 41.70319 0.50000 0 0 0
50 0.00000 42.56922 0.00000 0 0 0
51 0.00000 43.43524 0.50000 0 0 0
52 0.00000 44.30127 0.00000 0 0 0
53 0.00000 45.16730 0.50000 0 0 0
54 0.00000 46.03332 0.00000 0 0 0
55 0.00000 46.89935 0.50000 0 0 0
56 0.00000 47.76537 0.00000 0 0 0
57 0.00000 48.63140 0.50000 0 0 0
58 0.00000 49.49742 0.00000 0 0 0
59 0.00000 50.36345 0.50000 0 0 0
60 0.00000 51.22947 0.00000 0 0 0
61 0.00000 52.09550 0.50000 0 0 0
62 0.00000 52.96152 0.00000 0 0 0
63 0.00000 53.82755 0.50000 0 0 0
64 0.00000 54.69358 0.00000 0 0 0
65 0.00000 55.55960 0.50000 0 0 0
66 0.00000 56.42563 0.00000 0 0 0
67 0.00000 57.29165 0.50000 0 0 0
68 0.00000 58.15768 0.00000 0 0 0
69 0.00000 59.02370 0.50000 0 0 0
70 0.00000 59.88973 0.00000 0 0 0
71 0.00000 60.75575 0.50000 0 0 0
72 0.00000 61.62178 0.00000 0 0 0
73 0.00000 62.48780 0.50000 0 0 0
74 0.00000 63.35383 0.00000 0 0 0
75 0.00000 64.21985 0.50000 0 0 0
76 0.00000 65.08588 0.00000 0 0 0
77 0.00000 65.95191 0.50000 0 0 0
78 0.00000 66.81793 0.00000 0 0 0
79 0.00000 67.68396 0.50000 0 0 0
80 0.00000 68.54998 0.00000 0 0 0
81 0.00000 69.41601 0.50000 0 0 0
82 0.00000 70.28203 0.00000 0 0 0
83 0.00000 71.14806 0.50000 0 0 0
84 0.00000 72.01408 0.00000 0 0 0
85 0.00000 72.88011 0.50000 0 0 0
86 0.00000 73.74613 0.00000 0 0 0
87 0.00000 74.61216 0.50000 0 0 0
88 0.00000 75.47818 0.00000 0 0 0
89 0.00000 76.34421 0.50000 0 0 0
90 0.00000 77.21024 0.00000 0 0 0
91 0.00000 78.07626 0.50000 0 0 0
92 0.00000 78.94229 0.00000 0 0 0
93 0.00000 79.80831 0.50000 0 0 0
94 0.00000 80.67434 0.00000 0 0 0
95 0.00000 81.54036 0.50000 0 0 0
96 0.00000 82.40639 0.00000 0 0 0
97 0.00000 83.27241 0.50000 0 0 0
98 0.00000 84.13844 0.00000 0 0 0
99 0.00000 85.00446 0.50000 0 0 0
100 0.00000 85.87049 0.00000 0 0 0
101 0.00000 86.73651 0.50000 0 0 0
102 0.00000 87.60254 0.00000 0 0 0
103 0.00000 88.46857 0.50000 0 0 0
104 0.00000 89.33459 0.00000 0 0 0
105 0.00000 90.20062 0.50000 0 0 0
106 0.00000 91.06664 0.00000 0 0 0
107 0.00000 91.93267 0.50000 0 0 0
108 0.00000 92.79869 0.00000 0 0 0
109 0.00000 93.66472 0.50000 0 0 0
110 0.00000 94.53074 0.00000 0 0 0
111 0.00000 95.39677 0.50000 0 0 0
112 0.00000 96.26279 0.00000 0 0 0
113 0.00000 97.12882 0.50000 0 0 0
114 0.00000 97.99485 0.00000 0 0 0
115 0.00000 98.86087 0.50000 0 0 0
116 0.00000 99.72690 0.00000 0 0 0
117 0.00000 100.59292 0.50000 0 0 0
118 0.00000 101.45895 0.00000 0 0 0
119 0.00000 102.32497 0.50000 0 0 0
120 0.00000 103.19100 0.00000 0 0 0
121 0.00000 104.05702 0.50000 0 0 0
122 0.00000 104.92305 0.00000 0 0 0
123 0.00000 105.78907 0.50000 0 0 0
124 0.00000 106.65510 0.00000 0 0 0
125 0.00000 107.52112 0.50000 0 0 0
126 0.00000 108.38715 0.00000 0 0 0
127 0.00000 109.25318 0.50000 0 0 0
128 0.00000 110.11920 0.00000 0 0 0
129 0.00000 110.98523 0.50000 0 0 0
130 0.00000 111.85125 0.00000 0 0 0
131 0.00000 112.71728 0.50000 0 0 0
132 0.00000 113.58330 0.00000 0 0 0
133 0.00000 114.44933 0.50000 0 0 0
134 0.00000 115.31535 0.00000 0 0 0
135 0.00000 116.18138 0.50000 0 0 0
136 0.00000 117.04740 0.00000 0 0 0
137 0.00000 117.91343 0.50000 0 0 0
138 0.00000 118.77945 0.00000 0 0 0
139 0.00000 119.64548 0.50000 0 0 0
140 0.00000 120.51151 0.00000 0 0 0
141 0.00000 121.37753 0.50000 0 0 0
142 0.00000 122.24356 0.00000 0 0 0
143 0.00000 123.10958 0.50000 0 0 0
144 0.00000 123.97561 0.00000 0 0 0
145 0.00000 124.84163 0.50000 0 0 0
146 0.00000 125.70766 0.00000 0 0 0
147 0.00000 126.57368 0.50000 0 0 0
148 0.00000 127.43971 0.00000 0 0 0
149 0.00000 128.30573 0.50000 0 0 0
150 0.00000 129.17176 0.00000 0 0 0
151 0.00000 130.03779 0.50000 0 0 0
152 0.00000 130.90381 0.00000 0 0 0
153 0.00000 131.76984 0.50000 0 0 0
154 0.00000 132.63586 0.00000 0 0 0
155 0.00000 133.50189 0.50000 0 0 0
156 0.00000 134.36791 0.00000 0 0 0
157 0.00000 135.23394 0.50000 0 0 0
158 0.00000 136.09996 0.00000 0 0 0
159 0.00000 136.96599 0.50000 0 0 0
160 0.00000 137.83201 0.00000 0 0 0
161 0.00000 138.69804 0.50000 0 0 0
162 0.00000 139.56406 0.00000 0 0 0
163 0.00000 140.43009 0.50000 0 0 0
164 0.00000 141.29612 0.00000 0 0 0
165 0.00000 142.16214 0.50000 0 0 0
166 0.00000 143.02817 0.00000 0 0 0
167 0.00000 143.89419 0.50000 0 0 0
168 0.00000 144.76022 0.00000 0 0 0
169 0.00000 145.62624 0.50000 0 0 0
170 0.00000 146.49227 0.00000 0 0 0
171 0.00000 147.35829 0.50000 0 0 0
172 0.00000 148.22432 0.00000 0 0 0
173 0.00000 149.09034 0.50000 0 0 0
174 0.00000 149.95637 0.00000 0 0 0
175 0.00000 150.82239 0.50000 0 0 0
176 0.00000 151.68842 0.00000 0 0 0
177 0.00000 152.55445 0.50000 0 0 0
178 0.00000 153.42047 0.00000 0 0 0
179 0.00000 154.28650 0.50000 0 0 0
180 0.00000 155.15252 0.00000 0 0 0
181 0.00000 156.01855 0.50000 0 0 0
182 0.00000 156.88457 0.00000 0 0 0
183 0.00000 157.75060 0.50000 0 0 0
184 0.00000 158.61662 0.00000 0 0 0
185 0.00000 159.48265 0.50000 0 0 0
186 0.00000 160.34867 0.00000 0 0 0
187 0.00000 161.21470 0.50000 0 0 0
188 0.00000 162.08073 0.00000 0 0 0
189 0.00000 162.94675 0.50000 0 0 0
190 0.00000 163.81278 0.00000 0 0 0
191 0.00000 164.67880 0.50000 0 0 0
192 0.00000 165.54483 0.00000 0 0 0
193 0.00000 166.41085 0.50000 0 0 0
194 0.00000 167.27688 0.00000 0 0 0
195 0.00000 168.14290 0.50000 0 0 0
196 0.00000 169.00893 0.00000 0 0 0
197 0.00000 169.87495 0.50000 0 0 0
198 0.00000 170.74098 0.00000 0 0 0
199 0.00000 171.60700 0.50000 0 0 0
200 0.00000 172.47303 0.00000 0 0 0
201 0.00000 173.33906 0.50000 0 0 0
202 0.00000 174.20508 0.00000 0 0 0
203 0.00000 175.07111 0.50000 0 0 0
204 0.00000 175.93713 0.00000 0 0 0
205 0.00000 176.80316 0.50000 0 0 0
206 0.00000 177.66918 0.00000 0 0 0
207 0.00000 178.53521 0.50000 0 0 0
208 0.00000 179.40123 0.00000 0 0 0
209 0.00000 180.26726 0.50000 0 0 0
210 0.00000 181.13328 0.00000 0 0 0
211 0.00000 181.99931 0.50000 0 0 0
212 0.00000 182.86533 0.00000 0 0 0
213 0.00000 183.73136 0.50000 0 0 0
214 0.00000 184.59739 0.00000 0 0 0
215 0.00000 185.46341 0.50000 0 0 0
216 0.00000 186.32944 0.00000 0 0 0
217 0.00000 187.19546 0.50000 0 0 0
218 0.00000 188.06149 0.00000 0 0 0
219 0.00000 188.92751 0.50000 0 0 0
220 0.00000 189.79354 0.00000 0 0 0
221 0.00000 190.65956 0.50000 0 0 0
222 0.00000 191.52559 0.00000 0 0 0
223 0.00000 192.39161 0.50000 0 0 0
224 0.00000 193.25764 0.00000 0 0 0
225 0.00000 194.12367 0.50000 0 0 0
226 0.00000 194.98969 0.00000 0 0 0
227 0.00000 195.85572 0.50000 0 0 0
228 0.00000 196.72174 0.00000 0 0 0
229 0.00000 197.58777 0.50000 0 0 0
230 0.00000 198.45379 0.00000 0 0 0
231 0.00000 199.31982 0.50000 0 0 0
232 0.00000 200.18584 0.00000 0 0 0
233 0.00000 201.05187 0.50000 0 0 0
234 0.00000 201.91789 0.00000 0 0 0
235 0.00000 202.78392 0.50000 0 0 0
236 0.00000 203.64994 0.00000 0 0 0
237 0.00000 204.51597 0.50000 0 0 0
238 0.00000 205.38200 0.00000 0 0 0
239 0.00000 206.24802 0.50000 0 0 0
240 0.00000 207.11405 0.00000 0 0 0
241 0.00000 207.98007 0.50000 0 0 0
242 0.00000 208.84610 0.00000 0 0 0
243 0.00000 209.71212 0.50000 0 0 0
244 0.00000 210.57815 0.00000 0 0 0
245 0.00000 211.44417 0.50000 0 0 0
246 0.00000 212.31020 0.00000 0 0 0
247 0.00000 213.17622 0.50000 0 0 0
248 0.00000 214.04225 0.00000 0 0 0
249 0.00000 214.90827 0.50000 0 0 0
250 0.00000 215.77430 0.00000 0 0 0
251 0.00000 216.64033 0.50000 0 0 0
252 0.00000 217.50635 0.00000 0 0 0
253 0.00000 218.37238 0.50000 0 0 0
254 0.00000 219.23840 0.00000 0 0 0
255 0.00000 220.10443 0.50000 0 0 0
256 0.00000 220.97045 0.00000 0 0 0
257 0.00000 221.83648 0.50000 0 0 0
258 0.00000 222.70250 0.00000 0 0 0
259 0.00000 223.56853 0.50000 0 0 0
260 0.00000 224.43455 0.00000 0 0 0
261 0.00000 225.30058 0.50000 0 0 0
262 0.00000 226.16660 0.00000 0 0 0
263 0.00000 227.03263 0.50000 0 0 0
264 0.00000 227.89866 0.00000 0 0 0
265 0.00000 228.76468 0.50000 0 0 0
266 0.00000 229.63071 0.00000 0 0 0
267 0.00000 230.49673 0.50000 0 0 0
268 0.00000 231.36276 0.00000 0 0 0
269 0.00000 232.22878 0.50000 0 0 0
270 0.00000 233.09481 0.00000 0 0 0
271 0.00000 233.96083 0.50000 0 0 0
272 0.00000 234.82686 0.00000 0 0 0
273 0.00000 235.69288 0.50000 0 0 0
274 0.00000 236.55891 0.00000 0 0 0
275 0.00000 237.42494 0.50000 0 0 0
276 0.00000 238.29096 0.00000 0 0 0
277 0.00000 239.15699 0.50000 0 0 0
278 0.00000 240.02301 0.00000 0 0 0
279 0.00000 240.88904 0.50000 0 0 0
280 0.00000 241.75506 0.00000 0 0 0
281 0.00000 242.62109 0.50000 0 0 0
282 0.00000 243.48711 0.00000 0 0 0
283 0.00000 244.35314 0.50000 0 0 0
284 0.00000 245.21916 0.00000 0 0 0
285 0.00000 246.08519 0.50000 0 0 0
286 0.00000 246.95121 0.00000 0 0 0
287 0.00000 247.81724 0.50000 0 0 0
288 0.00000 248.68327 0.00000 0 0 0
289 0.00000 249.54929 0.50000 0 0 0
290 0.00000 250.41532 0.00000 0 0 0
291 0.00000 251.28134 0.50000 0 0 0
292 0.00000 252.14737 0.00000 0 0 0
293 0.00000 253.01339 0.50000 0 0 0
294 0.00000 253.87942 0.00000 0 0 0
295 0.00000 254.74544 0.50000 0 0 0
296 0.00000 255.61147 0.00000 0 0 0
297 0.00000 256.47749 0.50000 0 0 0
298 0.00000 257.34352 0.00000 0 0 0
299 0.00000 258.20954 0.50000 0 0 0
300 0.00000 259.07557 0.00000 0 0 0
ITEM: TIMESTEP
1000
ITEM: NUMBER OF ATOMS
300
ITEM: BOX BOUNDS pp pp pp
-1.0000000000000000e+03 1.0000000000000000e+03
-1.0000000000000000e+03 1.0000000000000000e+03
-1.0000000000000000e+03 1.0000000000000000e+03
ITEM: ATOMS id x y z ix iy iz
1 0.70373 5.14642 -2.24748 0 0 0
2 0.85028 4.23088 -1.96572 0 0 0
3 -0.06019 3.86283 -1.83813 0 0 0
4 -0.42738 4.53625 -2.41979 0 0 0
5 -0.38738 5.48384 -2.39488 0 0 0
6 0.01780 6.29433 -2.77543 0 0 0
7 -0.55626 6.81695 -2.17348 0 0 0
8 -0.30526 7.65873 -1.72340 0 0 0
9 -0.96362 8.25056 -2.14925 0 0 0
10 -1.75802 8.88001 -2.07573 0 0 0
11 -0.99530 9.49489 -2.03083 0 0 0
12 -0.80784 10.45040 -2.01133 0 0 0
13 -0.61252 11.34088 -1.67457 0 0 0
14 -0.57291 12.31522 -1.58733 0 0 0
15 -0.82598 13.16341 -1.21418 0 0 0
16 -0.28981 13.99296 -0.96494 0 0 0
17 -0.19035 14.67431 -0.23789 0 0 0
18 0.56186 14.70386 -0.86107 0 0 0
19 0.43568 15.69719 -1.00685 0 0 0
20 -0.21214 16.48159 -1.00694 0 0 0
21 -0.54478 17.32640 -0.68505 0 0 0
22 -0.75529 18.24804 -0.45482 0 0 0
23 -0.59522 19.17659 -0.62691 0 0 0
24 -0.41112 20.07843 -0.21676 0 0 0
25 -0.10371 20.96682 -0.10339 0 0 0
26 -0.59174 21.80260 -0.39119 0 0 0
27 -0.36352 22.75860 -0.16570 0 0 0
28 -0.03086 23.67583 -0.22853 0 0 0
29 0.27305 24.57716 -0.11597 0 0 0
30 0.60687 25.59955 -0.14007 0 0 0
31 0.71284 26.52839 0.33844 0 0 0
32 0.32371 27.41482 0.22719 0 0 0
33 0.23370 28.24608 0.71999 0 0 0
34 0.12786 28.97913 0.03948 0 0 0
35 -0.46779 29.70906 -0.07941 0 0 0
36 -0.94038 30.64719 0.00767 0 0 0
37 -1.32318 31.56867 0.30999 0 0 0
38 -1.32918 32.62209 0.13256 0 0 0
39 -1.72023 33.51480 0.03175 0 0 0
40 -2.02779 34.47066 0.15386 0 0 0
41 -2.31730 35.44400 0.21636 0 0 0
42 -2.18976 36.43755 0.36483 0 0 0
43 -2.11162 37.37628 -0.02708 0 0 0
44 -1.53684 38.23900 0.05326 0 0 0
45 -0.97962 39.06534 0.32890 0 0 0
46 -1.20274 40.10905 0.43870 0 0 0
47 -0.95647 41.06437 0.41548 0 0 0
48 -0.96531 42.03076 0.04117 0 0 0
49 -0.59421 42.67660 -0.62664 0 0 0
50 -0.10420 43.52097 -0.83676 0 0 0
51 -0.26137 44.44194 -1.08710 0 0 0
52 0.24172 45.29339 -1.04533 0 0 0
53 -0.20971 46.17195 -1.02134 0 0 0
54 -0.62624 47.01826 -0.93703 0 0 0
55 -0.42888 47.89840 -1.46493 0 0 0
56 -0.53812 48.68746 -2.07324 0 0 0
57 -1.05068 49.52369 -2.06802 0 0 0
58 -1.31185 50.44802 -1.78835 0 0 0
59 -0.78639 51.11523 -1.24782 0 0 0
60 -0.78674 52.00435 -0.71981 0 0 0
61 -1.06467 52.91734 -0.61345 0 0 0
62 -0.40259 53.64341 -0.60131 0 0 0
63 -0.07001 54.42996 -0.15750 0 0 0
64 -0.10213 55.36945 0.22829 0 0 0
65 -0.85710 55.52459 0.86254 0 0 0
66 -1.13014 56.02398 1.68151 0 0 0
67 -1.58038 56.93194 1.97531 0 0 0
68 -1.75181 57.52899 1.20049 0 0 0
69 -1.58380 58.44258 0.82402 0 0 0
70 -1.72655 59.40358 1.08830 0 0 0
71 -2.18745 60.39085 1.01536 0 0 0
72 -1.99260 61.14801 0.50096 0 0 0
73 -1.43606 62.01600 0.66804 0 0 0
74 -1.20463 62.88786 1.01965 0 0 0
75 -1.14142 63.89230 1.00545 0 0 0
76 -0.94423 64.85611 0.73937 0 0 0
77 -0.86363 65.81243 1.07250 0 0 0
78 -1.20161 66.63434 1.31170 0 0 0
79 -1.55389 67.54274 1.35495 0 0 0
80 -0.90439 68.25607 1.31712 0 0 0
81 -0.65538 69.23595 1.73295 0 0 0
82 -0.49307 69.91989 1.05961 0 0 0
83 -0.58571 70.66284 1.60874 0 0 0
84 -0.45607 71.45695 1.04484 0 0 0
85 -0.18968 72.37673 0.96884 0 0 0
86 -1.05292 72.83370 1.26194 0 0 0
87 -1.68709 73.64261 1.25577 0 0 0
88 -1.97718 74.59463 1.42737 0 0 0
89 -1.86971 75.56759 1.63993 0 0 0
90 -1.38324 76.34308 1.74558 0 0 0
91 -1.10939 77.42799 1.82525 0 0 0
92 -0.90738 78.38764 1.98674 0 0 0
93 -0.89649 79.40970 1.90643 0 0 0
94 -0.97505 80.37939 2.31359 0 0 0
95 -1.32289 81.25378 2.22528 0 0 0
96 -1.77609 82.13834 2.22028 0 0 0
97 -2.12392 82.97746 2.32598 0 0 0
98 -2.45664 83.82245 1.97133 0 0 0
99 -2.34599 84.79849 2.03132 0 0 0
100 -2.08993 85.69918 1.72542 0 0 0
101 -2.12441 86.61834 1.42195 0 0 0
102 -1.98372 87.54089 1.74836 0 0 0
103 -1.87415 88.48786 1.68219 0 0 0
104 -1.87544 89.38910 2.12133 0 0 0
105 -1.58327 90.32441 2.21958 0 0 0
106 -1.67734 91.31788 2.07091 0 0 0
107 -1.91546 92.19683 1.92903 0 0 0
108 -1.58111 93.06537 2.09200 0 0 0
109 -1.72996 93.81367 2.57439 0 0 0
110 -1.85661 94.76409 2.59617 0 0 0
111 -1.19744 95.49427 2.39781 0 0 0
112 -1.52611 96.20665 1.72720 0 0 0
113 -1.52518 97.16169 1.65507 0 0 0
114 -1.68780 98.03568 1.20105 0 0 0
115 -1.49919 98.96685 1.09765 0 0 0
116 -1.33441 99.93606 0.88925 0 0 0
117 -1.49162 100.76810 0.42064 0 0 0
118 -1.53322 101.64802 0.20566 0 0 0
119 -1.37809 102.55688 -0.36623 0 0 0
120 -0.60156 103.11381 0.07687 0 0 0
121 -0.65733 104.23585 0.18633 0 0 0
122 -1.15910 105.00687 0.11206 0 0 0
123 -0.95229 105.71591 -0.51704 0 0 0
124 -0.47436 106.57535 -0.82133 0 0 0
125 -0.35069 107.53493 -1.02191 0 0 0
126 -0.16488 108.37228 -1.41742 0 0 0
127 -0.10281 109.27763 -1.91174 0 0 0
128 -0.78603 109.90870 -1.64099 0 0 0
129 -0.85244 110.83433 -1.43022 0 0 0
130 -1.06804 111.77015 -1.51296 0 0 0
131 -0.73114 112.66726 -1.51332 0 0 0
132 -0.59459 113.59577 -1.33172 0 0 0
133 -0.43499 114.48878 -0.89871 0 0 0
134 -0.49348 115.38259 -0.97972 0 0 0
135 -0.21124 116.26742 -0.42896 0 0 0
136 -0.06709 117.19637 0.12322 0 0 0
137 -0.13385 118.16161 0.18643 0 0 0
138 0.15089 118.72342 0.97052 0 0 0
139 0.35406 119.52035 1.45789 0 0 0
140 0.78050 120.37905 1.58886 0 0 0
141 0.72241 121.29300 1.26272 0 0 0
142 0.96005 122.17871 0.92525 0 0 0
143 0.67481 123.20926 1.07845 0 0 0
144 0.99831 124.14469 1.30614 0 0 0
145 0.97903 125.04276 0.82098 0 0 0
146 0.55545 125.83733 0.44799 0 0 0
147 0.64427 126.69669 0.01395 0 0 0
148 1.04627 127.54038 0.15025 0 0 0
149 1.12455 128.50237 0.19717 0 0 0
150 1.12718 129.39816 0.47357 0 0 0
151 1.14782 130.35068 0.28712 0 0 0
152 0.61337 131.17843 0.04594 0 0 0
153 0.53819 132.01280 0.59207 0 0 0
154 0.63321 133.16708 0.48400 0 0 0
155 -0.02551 133.88115 0.48872 0 0 0
156 -0.01046 134.85598 0.16574 0 0 0
157 -0.42924 135.72397 0.37876 0 0 0
158 -0.67553 136.57559 0.03814 0 0 0
159 -0.67348 137.53735 0.33106 0 0 0
160 -0.72031 138.41829 0.87252 0 0 0
161 -0.35114 139.32393 0.82413 0 0 0
162 -0.01631 140.25734 0.66974 0 0 0
163 -0.07237 141.23483 0.93706 0 0 0
164 -0.22892 142.03189 0.51312 0 0 0
165 -0.54006 142.78632 1.12562 0 0 0
166 -0.36024 143.71241 0.84099 0 0 0
167 -0.19401 144.75376 0.81879 0 0 0
168 -0.78695 145.36475 1.29450 0 0 0
169 -1.07777 146.21292 0.82784 0 0 0
170 -1.27268 147.16643 0.76227 0 0 0
171 -1.13484 148.16625 0.66782 0 0 0
172 -1.24279 149.15618 0.78401 0 0 0
173 -1.38469 149.92868 0.19112 0 0 0
174 -1.24298 150.82041 -0.25668 0 0 0
175 -1.25754 151.78286 -0.43564 0 0 0
176 -1.06840 152.55085 -0.96240 0 0 0
177 -0.45277 153.24823 -1.34951 0 0 0
178 -0.55693 154.05032 -1.78016 0 0 0
179 -0.59410 155.05088 -2.00876 0 0 0
180 -0.42320 155.90450 -1.52651 0 0 0
181 -0.28527 156.81236 -1.44645 0 0 0
182 0.32741 157.44049 -0.96953 0 0 0
183 0.48673 158.25567 -0.38046 0 0 0
184 0.56296 159.16999 -0.28072 0 0 0
185 0.71247 160.07188 -0.81961 0 0 0
186 0.60738 161.05545 -0.56645 0 0 0
187 0.05490 161.74526 -0.90958 0 0 0
188 0.22554 162.62553 -0.43812 0 0 0
189 0.33692 163.71845 -0.38257 0 0 0
190 0.59294 164.64322 -0.29937 0 0 0
191 1.16324 165.46465 -0.32898 0 0 0
192 0.87705 165.93634 -1.07171 0 0 0
193 0.59830 166.86413 -1.06908 0 0 0
194 0.83247 167.80365 -0.87891 0 0 0
195 0.68524 168.72775 -1.10562 0 0 0
196 1.35323 169.50354 -1.31842 0 0 0
197 1.45076 170.47766 -0.90995 0 0 0
198 1.35159 171.33660 -0.48549 0 0 0
199 1.71971 172.22780 -0.23618 0 0 0
200 1.18224 173.03347 -0.29339 0 0 0
201 0.49684 173.70191 -0.35698 0 0 0
202 0.55403 174.55752 -0.00829 0 0 0
203 0.38398 175.60074 0.06884 0 0 0
204 0.69049 176.33109 0.58226 0 0 0
205 0.34397 176.83069 1.35383 0 0 0
206 0.96356 177.70800 1.43312 0 0 0
207 0.58570 178.61442 1.37939 0 0 0
208 0.15779 179.54773 1.55682 0 0 0
209 0.61271 180.39462 1.49850 0 0 0
210 1.07989 181.09404 2.04558 0 0 0
211 0.77243 182.00475 1.85218 0 0 0
212 0.55665 183.00802 1.85587 0 0 0
213 0.54519 184.00817 2.11687 0 0 0
214 0.47923 184.86110 1.63320 0 0 0
215 -0.01929 185.70721 1.35066 0 0 0
216 0.47334 186.59607 1.24137 0 0 0
217 0.83282 187.47042 1.30768 0 0 0
218 1.23816 188.36258 1.29002 0 0 0
219 0.75713 189.14243 1.05233 0 0 0
220 1.01133 190.08175 0.57200 0 0 0
221 0.61527 190.75573 -0.03503 0 0 0
222 0.09577 191.60215 0.23440 0 0 0
223 -0.51584 192.29237 -0.17824 0 0 0
224 -0.54169 193.23394 -0.15683 0 0 0
225 -0.28524 194.17039 0.22563 0 0 0
226 -0.59138 195.08780 0.52308 0 0 0
227 -0.62485 196.02132 0.26131 0 0 0
228 0.16588 196.68792 0.32424 0 0 0
229 0.70468 197.51915 0.55268 0 0 0
230 0.42859 198.48090 0.79176 0 0 0
231 0.33286 199.47579 0.50841 0 0 0
232 0.32370 200.22742 1.13770 0 0 0
233 0.53079 201.18189 1.26047 0 0 0
234 0.79206 202.07605 1.52366 0 0 0
235 1.10175 202.84001 1.07460 0 0 0
236 1.11140 203.69235 0.61106 0 0 0
237 1.17254 204.64288 0.35944 0 0 0
238 0.82365 205.13974 -0.46245 0 0 0
239 1.26932 205.98034 -0.68322 0 0 0
240 1.18914 206.92158 -0.35588 0 0 0
241 0.87639 207.69118 -0.89820 0 0 0
242 0.80074 208.62232 -0.89545 0 0 0
243 1.11736 209.58318 -0.64403 0 0 0
244 0.88664 210.51732 -0.66211 0 0 0
245 0.63153 211.40599 -0.26635 0 0 0
246 0.72208 212.32760 0.04786 0 0 0
247 0.73845 213.27667 0.13316 0 0 0
248 0.36558 214.25219 0.02538 0 0 0
249 -0.29061 214.89548 -0.29107 0 0 0
250 -0.60606 215.84606 -0.20406 0 0 0
251 -0.24177 216.70221 -0.45985 0 0 0
252 0.48531 217.29499 -0.29636 0 0 0
253 0.56308 218.32192 -0.23650 0 0 0
254 0.67209 218.82590 0.63687 0 0 0
255 0.38262 219.47814 1.26576 0 0 0
256 0.65957 220.42054 1.31557 0 0 0
257 0.42682 221.39191 1.29685 0 0 0
258 0.46177 222.43516 1.01418 0 0 0
259 0.46919 223.19959 0.45808 0 0 0
260 0.10873 223.95686 0.95400 0 0 0
261 0.54544 224.81984 0.79024 0 0 0
262 0.67108 225.71600 0.39781 0 0 0
263 0.39085 226.64049 -0.14087 0 0 0
264 0.22804 227.62110 -0.16167 0 0 0
265 -0.10341 228.56106 -0.11270 0 0 0
266 -0.45726 229.30939 -0.53450 0 0 0
267 -1.16762 229.85122 -0.93119 0 0 0
268 -1.26440 230.77552 -0.76316 0 0 0
269 -1.32650 231.47038 -0.13685 0 0 0
270 -0.83005 232.33436 0.31237 0 0 0
271 -1.21447 233.24814 0.30068 0 0 0
272 -1.14085 234.22450 0.34307 0 0 0
273 -0.74232 235.14978 0.43185 0 0 0
274 -0.24933 236.10744 0.15087 0 0 0
275 -0.28020 237.04887 0.44491 0 0 0
276 -0.17098 238.01054 0.36881 0 0 0
277 0.14022 238.85205 0.73197 0 0 0
278 0.72964 239.66779 1.21993 0 0 0
279 0.51492 240.54755 1.51863 0 0 0
280 0.25701 241.42219 2.07056 0 0 0
281 0.03435 242.39285 1.98492 0 0 0
282 -0.19299 243.21627 1.45748 0 0 0
283 0.34437 243.94507 1.73114 0 0 0
284 0.20760 244.85307 1.34036 0 0 0
285 0.33407 245.81374 1.19077 0 0 0
286 0.36880 246.47895 0.36326 0 0 0
287 1.28403 246.85936 0.18778 0 0 0
288 1.33835 247.72122 0.73281 0 0 0
289 0.59768 248.13351 1.26789 0 0 0
290 0.54722 249.00076 1.66377 0 0 0
291 0.26258 249.90861 1.39662 0 0 0
292 0.30312 250.77947 1.05719 0 0 0
293 0.86371 251.59355 0.77939 0 0 0
294 0.96977 252.50820 0.36448 0 0 0
295 1.81754 252.59652 -0.19728 0 0 0
296 2.06265 253.45125 -0.59618 0 0 0
297 1.83428 254.43536 -0.70663 0 0 0
298 1.52215 254.69263 0.25071 0 0 0
299 0.59325 254.56883 0.45746 0 0 0
300 0.41000 255.27414 -0.20602 0 0 0
ITEM: TIMESTEP
2000
ITEM: NUMBER OF ATOMS
300
ITEM: BOX BOUNDS pp pp pp
-1.0000000000000000e+03 1.0000000000000000e+03
-1.0000000000000000e+03 1.0000000000000000e+03
-1.0000000000000000e+03 1.0000000000000000e+03
ITEM: ATOMS id x y z ix iy iz
1 -2.16355 4.79485 -0.96900 0 0 0
2 -2.06683 5.45472 -1.69129 0 0 0
3 -1.86049 6.33002 -1.25845 0 0 0
4 -1.77506 6.15962 -0.29577 0 0 0
5 -1.12142 6.92452 -0.45761 0 0 0
6 -0.73237 7.82079 -0.32602 0 0 0
7 -0.67947 8.69216 -0.62079 0 0 0
8 0.36586 8.78778 -0.29772 0 0 0
9 0.22922 9.61795 0.29370 0 0 0
10 0.87039 10.26683 0.06795 0 0 0
11 1.82402 10.39706 0.16132 0 0 0
12 2.59530 10.53879 -0.44684 0 0 0
13 2.66994 11.48635 -0.54125 0 0 0
14 2.26256 12.29154 -0.17923 0 0 0
15 2.09681 13.03282 -0.68432 0 0 0
16 2.23834 13.74819 -1.35024 0 0 0
17 1.62638 14.50761 -1.42024 0 0 0
18 1.10724 15.15867 -0.69768 0 0 0
19 0.79663 16.08333 -0.44703 0 0 0
20 1.15250 16.95493 -0.14084 0 0 0
21 1.09108 17.88323 0.21971 0 0 0
22 0.73535 18.51312 0.87142 0 0 0
23 0.89086 19.17190 1.58338 0 0 0
24 0.99411 20.12903 1.72184 0 0 0
25 0.78412 20.84589 2.47807 0 0 0
26 0.80986 21.71786 2.13973 0 0 0
27 0.65832 22.68203 2.25470 0 0 0
28 0.49174 23.65656 1.88853 0 0 0
29 0.02478 24.66620 1.96574 0 0 0
30 -0.05805 25.57681 1.47669 0 0 0
31 0.33189 26.48589 1.30769 0 0 0
32 0.58110 27.40204 1.01607 0 0 0
33 0.47106 28.38821 0.59907 0 0 0
34 0.86024 29.16767 1.01725 0 0 0
35 0.52074 30.08379 1.07457 0 0 0
36 0.28257 30.93969 0.62195 0 0 0
37 -0.44048 31.60425 0.87771 0 0 0
38 -0.47859 32.57968 0.72484 0 0 0
39 0.00650 33.55904 0.89498 0 0 0
40 0.03147 34.62003 0.88710 0 0 0
41 0.03654 35.21205 0.03671 0 0 0
42 0.05869 36.22363 0.12673 0 0 0
43 0.44133 37.04156 -0.21793 0 0 0
44 0.23185 37.87008 0.13245 0 0 0
45 0.23541 38.76668 0.46372 0 0 0
46 0.28615 39.41405 -0.27830 0 0 0
47 0.19177 40.36146 -0.50625 0 0 0
48 0.25455 41.18988 -1.01975 0 0 0
49 0.26072 42.12935 -0.73400 0 0 0
50 -0.15242 42.98853 -0.43084 0 0 0
51 -0.41362 43.78013 -0.01418 0 0 0
52 -0.42633 44.70598 0.30793 0 0 0
53 -0.88311 45.56772 -0.17488 0 0 0
54 -1.03137 46.56183 -0.12064 0 0 0
55 -1.40662 47.58853 -0.13607 0 0 0
56 -1.54223 48.49385 -0.32116 0 0 0
57 -1.80467 49.38090 -0.63727 0 0 0
58 -1.82967 50.34057 -0.65074 0 0 0
59 -1.33443 51.14679 -0.68528 0 0 0
60 -1.78869 51.97441 -0.70815 0 0 0
61 -1.84399 52.95176 -0.84547 0 0 0
62 -2.27903 53.79908 -0.64898 0 0 0
63 -1.66226 54.52855 -0.81061 0 0 0
64 -1.89410 55.49570 -1.30098 0 0 0
65 -1.33049 56.25366 -0.94874 0 0 0
66 -1.10090 57.15342 -0.65762 0 0 0
67 -1.17962 58.10909 -0.62152 0 0 0
68 -0.88394 59.05905 -0.53163 0 0 0
69 -1.03896 59.98394 -0.37616 0 0 0
70 -1.13880 60.83040 -0.86755 0 0 0
71 -0.85912 61.75820 -1.06640 0 0 0
72 -0.37354 62.37546 -0.52671 0 0 0
73 -0.34520 63.06849 0.12115 0 0 0
74 -0.28889 63.89588 0.68991 0 0 0
75 -0.59358 64.55854 1.36540 0 0 0
76 -1.01774 65.38913 1.37819 0 0 0
77 -0.59750 66.13973 1.67347 0 0 0
78 -0.50029 67.08181 1.67367 0 0 0
79 -0.07444 68.05378 1.37649 0 0 0
80 0.66311 68.75996 1.66036 0 0 0
81 0.79472 69.67725 1.93089 0 0 0
82 1.10819 70.60075 1.94522 0 0 0
83 1.22618 71.58936 1.98288 0 0 0
84 1.33006 72.57222 1.85541 0 0 0
85 1.09218 73.18464 1.18495 0 0 0
86 1.30624 74.03840 0.72283 0 0 0
87 1.24311 75.05532 0.44125 0 0 0
88 0.68125 75.82527 0.44377 0 0 0
89 0.54899 76.78077 0.86785 0 0 0
90 0.00655 77.44840 1.35230 0 0 0
91 -0.19966 78.37147 1.58864 0 0 0
92 -0.21936 79.40479 1.58122 0 0 0
93 -0.92532 80.04390 1.43013 0 0 0
94 -0.82168 80.99346 1.20413 0 0 0
95 0.00747 81.64008 0.98590 0 0 0
96 -0.40231 82.49194 1.08951 0 0 0
97 -0.46582 83.25778 0.51820 0 0 0
98 -0.81910 84.34504 0.09053 0 0 0
99 -0.16628 85.06937 -0.00515 0 0 0
100 0.21519 86.00571 0.16415 0 0 0
101 -0.04552 86.97702 0.27014 0 0 0
102 -0.03135 87.97753 -0.11276 0 0 0
103 -0.58013 88.75277 0.01096 0 0 0
104 -0.82558 89.60781 -0.34703 0 0 0
105 -0.97385 90.23200 -1.07752 0 0 0
106 -0.74026 91.16586 -0.99579 0 0 0
107 -0.51209 92.22300 -0.78420 0 0 0
108 -0.29685 93.22813 -0.93785 0 0 0
109 -0.73965 94.06922 -0.64999 0 0 0
110 -0.91408 94.92028 -0.17870 0 0 0
111 -1.32005 95.90209 -0.15534 0 0 0
112 -1.49001 96.86555 -0.15082 0 0 0
113 -1.15272 97.79222 -0.29486 0 0 0
114 -1.19440 98.73679 -0.00879 0 0 0
115 -1.18024 99.75393 0.04832 0 0 0
116 -1.07082 100.79690 -0.25424 0 0 0
117 -1.24205 101.43808 -0.99780 0 0 0
118 -1.37989 102.39258 -0.68942 0 0 0
119 -0.95466 103.19683 -0.26521 0 0 0
120 -0.96330 104.14857 -0.00141 0 0 0
121 -1.01015 105.10019 -0.39426 0 0 0
122 -1.25563 106.11103 -0.33984 0 0 0
123 -0.60006 106.79962 -0.07061 0 0 0
124 -0.06054 107.52614 -0.36339 0 0 0
125 0.59859 108.21561 0.12083 0 0 0
126 0.71546 109.13591 -0.17985 0 0 0
127 1.32507 109.61481 -0.65797 0 0 0
128 1.56025 110.52164 -0.27151 0 0 0
129 1.58877 111.53487 -0.47590 0 0 0
130 1.58270 112.55770 -0.38329 0 0 0
131 1.33517 113.65518 -0.44126 0 0 0
132 0.84971 114.48038 -0.51698 0 0 0
133 1.02941 115.48328 -0.30368 0 0 0
134 0.85038 116.49252 -0.52949 0 0 0
135 0.73218 117.35084 -0.28880 0 0 0
136 0.46094 118.22452 -0.04583 0 0 0
137 0.56582 119.11799 0.34394 0 0 0
138 0.98575 119.98631 0.12561 0 0 0
139 0.84394 120.94847 0.39680 0 0 0
140 0.69972 121.91878 0.68936 0 0 0
141 0.72657 122.83791 0.59448 0 0 0
142 0.88052 123.49724 -0.04218 0 0 0
143 1.20942 124.40362 0.17489 0 0 0
144 0.81257 125.35331 0.14509 0 0 0
145 0.92754 126.28124 0.33452 0 0 0
146 0.88515 127.22031 0.62739 0 0 0
147 0.08619 127.86662 0.64276 0 0 0
148 -0.16431 128.78243 0.50096 0 0 0
149 0.03533 129.83302 0.45952 0 0 0
150 0.58983 130.62998 0.40104 0 0 0
151 0.82643 131.58788 0.54058 0 0 0
152 1.01805 132.60624 0.51875 0 0 0
153 0.36700 133.07198 1.08725 0 0 0
154 0.49997 134.00585 0.90422 0 0 0
155 0.43921 134.80533 0.38519 0 0 0
156 0.69047 135.77097 0.14208 0 0 0
157 0.40886 136.70375 0.38261 0 0 0
158 0.13376 137.47783 0.83137 0 0 0
159 0.53097 138.55381 0.98311 0 0 0
160 0.64267 139.19098 0.25962 0 0 0
161 0.76022 140.10987 -0.10580 0 0 0
162 0.15598 140.73425 0.40830 0 0 0
163 0.52801 141.64080 0.22954 0 0 0
164 0.18708 142.48553 -0.00644 0 0 0
165 0.60215 143.29285 0.18734 0 0 0
166 0.14607 144.05150 0.62151 0 0 0
167 -0.07911 145.02708 0.41250 0 0 0
168 0.45468 145.82215 0.79249 0 0 0
169 0.11360 146.75298 0.94879 0 0 0
170 0.18414 147.50479 1.55894 0 0 0
171 0.15746 148.45606 1.60039 0 0 0
172 0.51788 149.30447 1.25228 0 0 0
173 0.29722 150.25901 1.11702 0 0 0
174 0.02791 151.19375 0.84010 0 0 0
175 0.34674 152.11118 0.94042 0 0 0
176 0.76980 152.87072 0.52258 0 0 0
177 0.93395 153.64024 -0.10536 0 0 0
178 0.93584 154.56389 -0.55668 0 0 0
179 0.94770 155.55339 -0.60696 0 0 0
180 0.67803 156.41085 -0.24114 0 0 0
181 0.54573 157.08624 0.37635 0 0 0
182 0.74944 157.94318 0.64533 0 0 0
183 -0.05948 158.38856 0.33372 0 0 0
184 0.21593 159.34704 0.29683 0 0 0
185 -0.09826 160.10751 0.87200 0 0 0
186 -0.91478 160.60397 0.84789 0 0 0
187 -1.17193 161.56767 0.90691 0 0 0
188 -1.35885 162.25489 0.26007 0 0 0
189 -1.07988 163.02571 -0.23617 0 0 0
190 -0.96249 163.84989 -0.75526 0 0 0
191 -0.54799 164.67121 -0.95212 0 0 0
192 -0.52876 165.75024 -0.67788 0 0 0
193 -0.22883 166.57598 -0.15154 0 0 0
194 0.14600 167.47951 0.23854 0 0 0
195 0.35362 168.32773 0.60480 0 0 0
196 0.37427 169.35900 0.74018 0 0 0
197 0.15912 170.18218 1.17081 0 0 0
198 0.11109 171.03803 1.64262 0 0 0
199 -0.06225 172.03684 1.46529 0 0 0
200 0.07659 172.97247 1.66568 0 0 0
201 0.04622 173.89862 1.85871 0 0 0
202 0.04576 174.60266 1.25581 0 0 0
203 -0.08597 175.51703 1.63880 0 0 0
204 0.00225 176.54287 1.44631 0 0 0
205 -0.30771 177.51692 1.53578 0 0 0
206 -0.32848 178.53910 1.76494 0 0 0
207 0.26961 179.26708 1.84655 0 0 0
208 0.53460 180.27141 1.56391 0 0 0
209 0.77651 181.15543 1.73756 0 0 0
210 0.66292 182.07527 1.23306 0 0 0
211 0.95692 183.02583 1.10929 0 0 0
212 0.81782 184.00590 1.40307 0 0 0
213 1.12544 184.67102 2.21845 0 0 0
214 1.13396 185.55877 2.25051 0 0 0
215 1.03114 186.42160 1.93377 0 0 0
216 0.87337 187.39851 1.87576 0 0 0
217 0.63073 188.25093 2.25793 0 0 0
218 0.28427 189.16686 2.07730 0 0 0
219 0.47560 190.10323 2.05238 0 0 0