ITEM: TIMESTEP
0
ITEM: NUMBER OF ATOMS
301
ITEM: BOX BOUNDS pp pp pp
-1.0000000000000000e+03 1.0000000000000000e+03
-1.0000000000000000e+03 1.0000000000000000e+03
-1.0000000000000000e+03 1.0000000000000000e+03
ITEM: ATOMS id x y z ix iy iz
1 0.00000 0.00000 0.00000 0 0 0
2 0.00000 0.00000 1.00000 0 0 0
3 0.00000 -0.50000 1.86603 0 0 0
4 0.00000 0.00000 2.73205 0 0 0
5 0.00000 -0.50000 3.59808 0 0 0
6 0.00000 0.00000 4.46410 0 0 0
7 0.00000 -0.50000 5.33013 0 0 0
8 0.00000 0.00000 6.19615 0 0 0
9 0.00000 -0.50000 7.06218 0 0 0
10 0.00000 0.00000 7.92820 0 0 0
11 0.00000 -0.50000 8.79423 0 0 0
12 0.00000 0.00000 9.66025 0 0 0
13 0.00000 -0.50000 10.52628 0 0 0
14 0.00000 0.00000 11.39230 0 0 0
15 0.00000 -0.50000 12.25833 0 0 0
16 0.00000 0.00000 13.12436 0 0 0
17 0.00000 -0.50000 13.99038 0 0 0
18 0.00000 0.00000 14.85641 0 0 0
19 0.00000 -0.50000 15.72243 0 0 0
20 0.00000 0.00000 16.58846 0 0 0
21 0.00000 -0.50000 17.45448 0 0 0
22 0.00000 0.00000 18.32051 0 0 0
23 0.00000 -0.50000 19.18653 0 0 0
24 0.00000 0.00000 20.05256 0 0 0
25 0.00000 -0.50000 20.91858 0 0 0
26 0.00000 0.00000 21.78461 0 0 0
27 0.00000 -0.50000 22.65064 0 0 0
28 0.00000 0.00000 23.51666 0 0 0
29 0.00000 -0.50000 24.38269 0 0 0
30 0.00000 0.00000 25.24871 0 0 0
31 0.00000 -0.50000 26.11474 0 0 0
32 -0.37800 0.08094 26.83559 0 0 0
33 -0.75600 0.22362 27.75033 0 0 0
34 -1.13400 1.08715 28.08414 0 0 0
35 -1.51200 1.22983 28.99889 0 0 0
36 -1.88999 2.09337 29.33269 0 0 0
37 -2.26799 2.23605 30.24744 0 0 0
38 -2.64599 3.09958 30.58125 0 0 0
39 -3.02399 3.24226 31.49599 0 0 0
40 -3.40199 4.10580 31.82980 0 0 0
41 -3.77999 4.24848 32.74454 0 0 0
42 -4.15799 5.11201 33.07835 0 0 0
43 -4.53599 5.25469 33.99309 0 0 0
44 -4.91398 6.11823 34.32690 0 0 0
45 -5.29198 6.26091 35.24165 0 0 0
46 -5.66998 7.12444 35.57545 0 0 0
47 -6.04798 7.26712 36.49020 0 0 0
48 -6.42598 8.13066 36.82401 0 0 0
49 -6.80398 8.27334 37.73875 0 0 0
50 -7.18198 9.13687 38.07256 0 0 0
51 -7.55998 9.27955 38.98730 0 0 0
52 -7.93797 10.14309 39.32111 0 0 0
53 -8.31597 10.28577 40.23586 0 0 0
54 -8.69397 11.14930 40.56966 0 0 0
55 -9.07197 11.29198 41.48441 0 0 0
56 -9.44997 12.15552 41.81821 0 0 0
57 -9.82797 12.29820 42.73296 0 0 0
58 -10.20597 13.16173 43.06677 0 0 0
59 -10.58397 13.30441 43.98151 0 0 0
60 -10.96196 14.16795 44.31532 0 0 0
61 -11.33996 14.31063 45.23006 0 0 0
62 0.93684 -0.75733 26.35162 0 0 0
63 1.87368 -1.09862 26.42810 0 0 0
64 2.81052 -1.20303 26.76191 0 0 0
65 3.74736 -1.54432 26.83839 0 0 0
66 4.68421 -1.64873 27.17219 0 0 0
67 5.62105 -1.99002 27.24868 0 0 0
68 6.55789 -2.09443 27.58248 0 0 0
69 7.49473 -2.43572 27.65896 0 0 0
70 8.43157 -2.54013 27.99277 0 0 0
71 9.36841 -2.88142 28.06925 0 0 0
72 10.30525 -2.98583 28.40306 0 0 0
73 11.24209 -3.32712 28.47954 0 0 0
74 12.17894 -3.43153 28.81335 0 0 0
75 13.11578 -3.77282 28.88983 0 0 0
76 14.05262 -3.87723 29.22364 0 0 0
77 14.98946 -4.21852 29.30012 0 0 0
78 15.92630 -4.32293 29.63392 0 0 0
79 16.86314 -4.66422 29.71041 0 0 0
80 17.79998 -4.76863 30.04421 0 0 0
81 18.73682 -5.10992 30.12069 0 0 0
82 19.67367 -5.21433 30.45450 0 0 0
83 20.61051 -5.55562 30.53098 0 0 0
84 21.54735 -5.66003 30.86479 0 0 0
85 22.48419 -6.00132 30.94127 0 0 0
86 23.42103 -6.10573 31.27508 0 0 0
87 24.35787 -6.44702 31.35156 0 0 0
88 25.29471 -6.55143 31.68537 0 0 0
89 26.23155 -6.89272 31.76185 0 0 0
90 27.16840 -6.99713 32.09565 0 0 0
91 28.10524 -7.33842 32.17214 0 0 0
92 -0.55884 -1.32432 26.02426 0 0 0
93 -1.11768 -1.99297 25.53374 0 0 0
94 -1.67653 -2.75209 25.86755 0 0 0
95 -2.23537 -3.42074 25.37703 0 0 0
96 -2.79421 -4.17986 25.71084 0 0 0
97 -3.35305 -4.84851 25.22032 0 0 0
98 -3.91190 -5.60763 25.55413 0 0 0
99 -4.47074 -6.27628 25.06361 0 0 0
100 -5.02958 -7.03540 25.39742 0 0 0
101 -5.58842 -7.70405 24.90690 0 0 0
102 -6.14727 -8.46317 25.24071 0 0 0
103 -6.70611 -9.13182 24.75020 0 0 0
104 -7.26495 -9.89094 25.08400 0 0 0
105 -7.82379 -10.55959 24.59349 0 0 0
106 -8.38264 -11.31871 24.92729 0 0 0
107 -8.94148 -11.98736 24.43678 0 0 0
108 -9.50032 -12.74648 24.77058 0 0 0
109 -10.05916 -13.41513 24.28007 0 0 0
110 -10.61801 -14.17425 24.61387 0 0 0
111 -11.17685 -14.84290 24.12336 0 0 0
112 -11.73569 -15.60202 24.45716 0 0 0
113 -12.29453 -16.27067 23.96665 0 0 0
114 -12.85338 -17.02979 24.30045 0 0 0
115 -13.41222 -17.69844 23.80994 0 0 0
116 -13.97106 -18.45756 24.14374 0 0 0
117 -14.52990 -19.12621 23.65323 0 0 0
118 -15.08875 -19.88533 23.98703 0 0 0
119 -15.64759 -20.55398 23.49652 0 0 0
120 -16.20643 -21.31310 23.83032 0 0 0
121 -16.76527 -21.98175 23.33981 0 0 0
122 -16.54487 -21.95002 22.36492 0 0 0
123 -16.32446 -21.43509 21.53650 0 0 0
124 -16.10405 -21.89505 20.67636 0 0 0
125 -15.88364 -21.38012 19.84794 0 0 0
126 -15.66323 -21.84008 18.98779 0 0 0
127 -15.44282 -21.32515 18.15938 0 0 0
128 -15.22241 -21.78512 17.29923 0 0 0
129 -15.00200 -21.27019 16.47082 0 0 0
130 -14.78159 -21.73015 15.61067 0 0 0
131 -14.56118 -21.21522 14.78226 0 0 0
132 -14.34078 -21.67518 13.92211 0 0 0
133 -14.12037 -21.16025 13.09370 0 0 0
134 -13.89996 -21.62022 12.23355 0 0 0
135 -13.67955 -21.10529 11.40514 0 0 0
136 -13.45914 -21.56525 10.54499 0 0 0
137 -13.23873 -21.05032 9.71658 0 0 0
138 -13.01832 -21.51028 8.85643 0 0 0
139 -12.79791 -20.99535 8.02802 0 0 0
140 -12.57750 -21.45532 7.16787 0 0 0
141 -12.35709 -20.94039 6.33945 0 0 0
142 -12.13669 -21.40035 5.47931 0 0 0
143 -11.91628 -20.88542 4.65089 0 0 0
144 -11.69587 -21.34538 3.79075 0 0 0
145 -11.47546 -20.83045 2.96233 0 0 0
146 -11.25505 -21.29042 2.10218 0 0 0
147 -11.03464 -20.77549 1.27377 0 0 0
148 -10.81423 -21.23545 0.41362 0 0 0
149 -10.59382 -20.72052 -0.41479 0 0 0
150 -10.37341 -21.18048 -1.27494 0 0 0
151 -10.15301 -20.66555 -2.10335 0 0 0
152 -17.73330 -21.76697 23.46937 0 0 0
153 -18.70133 -21.64574 23.68897 0 0 0
154 -19.66936 -21.39495 23.69379 0 0 0
155 -20.63739 -21.27373 23.91339 0 0 0
156 -21.60542 -21.02293 23.91821 0 0 0
157 -22.57345 -20.90171 24.13781 0 0 0
158 -23.54148 -20.65092 24.14262 0 0 0
159 -24.50951 -20.52969 24.36222 0 0 0
160 -25.47754 -20.27890 24.36704 0 0 0
161 -26.44557 -20.15768 24.58664 0 0 0
162 -27.41360 -19.90689 24.59145 0 0 0
163 -28.38162 -19.78566 24.81105 0 0 0
164 -29.34965 -19.53487 24.81587 0 0 0
165 -30.31768 -19.41365 25.03547 0 0 0
166 -31.28571 -19.16285 25.04029 0 0 0
167 -32.25374 -19.04163 25.25989 0 0 0
168 -33.22177 -18.79084 25.26470 0 0 0
169 -34.18980 -18.66961 25.48430 0 0 0
170 -35.15783 -18.41882 25.48912 0 0 0
171 -36.12586 -18.29760 25.70872 0 0 0
172 -37.09389 -18.04681 25.71353 0 0 0
173 -38.06192 -17.92558 25.93313 0 0 0
174 -39.02995 -17.67479 25.93795 0 0 0
175 -39.99797 -17.55356 26.15755 0 0 0
176 -40.96600 -17.30277 26.16237 0 0 0
177 -41.93403 -17.18155 26.38197 0 0 0
178 -42.90206 -16.93076 26.38678 0 0 0
179 -43.87009 -16.80953 26.60638 0 0 0
180 -44.83812 -16.55874 26.61120 0 0 0
181 -45.80615 -16.43752 26.83080 0 0 0
182 -16.57729 -22.89787 23.69392 0 0 0
183 -16.38931 -23.86830 23.54253 0 0 0
184 -16.20132 -24.48462 24.30726 0 0 0
185 -16.01334 -25.45506 24.15587 0 0 0
186 -15.82536 -26.07138 24.92060 0 0 0
187 -15.63737 -27.04182 24.76921 0 0 0
188 -15.44939 -27.65814 25.53393 0 0 0
189 -15.26140 -28.62858 25.38255 0 0 0
190 -15.07342 -29.24490 26.14727 0 0 0
191 -14.88544 -30.21533 25.99589 0 0 0
192 -14.69745 -30.83166 26.76061 0 0 0
193 -14.50947 -31.80209 26.60922 0 0 0
194 -14.32148 -32.41842 27.37395 0 0 0
195 -14.13350 -33.38885 27.22256 0 0 0
196 -13.94552 -34.00517 27.98729 0 0 0
197 -13.75753 -34.97561 27.83590 0 0 0
198 -13.56955 -35.59193 28.60063 0 0 0
199 -13.38157 -36.56237 28.44924 0 0 0
200 -13.19358 -37.17869 29.21397 0 0 0
201 -13.00560 -38.14913 29.06258 0 0 0
202 -12.81761 -38.76545 29.82730 0 0 0
203 -12.62963 -39.73588 29.67592 0 0 0
204 -12.44165 -40.35221 30.44064 0 0 0
205 -12.25366 -41.32264 30.28926 0 0 0
206 -12.06568 -41.93897 31.05398 0 0 0
207 -11.87769 -42.90940 30.90259 0 0 0
208 -11.68971 -43.52572 31.66732 0 0 0
209 -11.50173 -44.49616 31.51593 0 0 0
210 -11.31374 -45.11248 32.28066 0 0 0
211 -11.12576 -46.08292 32.12927 0 0 0
212 -11.79254 -46.45535 31.48375 0 0 0
213 -12.45931 -46.45513 30.73849 0 0 0
214 -13.12609 -47.10043 30.36567 0 0 0
215 -13.79286 -47.10021 29.62041 0 0 0
216 -14.45964 -47.74551 29.24759 0 0 0
217 -15.12642 -47.74529 28.50233 0 0 0
218 -15.79319 -48.39059 28.12951 0 0 0
219 -16.45997 -48.39037 27.38425 0 0 0
220 -17.12675 -49.03567 27.01143 0 0 0
221 -17.79352 -49.03545 26.26617 0 0 0
222 -18.46030 -49.68075 25.89335 0 0 0
223 -19.12708 -49.68053 25.14809 0 0 0
224 -19.79385 -50.32583 24.77527 0 0 0
225 -20.46063 -50.32561 24.03002 0 0 0
226 -21.12741 -50.97091 23.65719 0 0 0
227 -21.79418 -50.97068 22.91194 0 0 0
228 -22.46096 -51.61599 22.53912 0 0 0
229 -23.12773 -51.61576 21.79386 0 0 0
230 -23.79451 -52.26106 21.42104 0 0 0
231 -24.46129 -52.26084 20.67578 0 0 0
232 -25.12806 -52.90614 20.30296 0 0 0
233 -25.79484 -52.90592 19.55770 0 0 0
234 -26.46162 -53.55122 19.18488 0 0 0
235 -27.12839 -53.55100 18.43962 0 0 0
236 -27.79517 -54.19630 18.06680 0 0 0
237 -28.46195 -54.19608 17.32154 0 0 0
238 -29.12872 -54.84138 16.94872 0 0 0
239 -29.79550 -54.84116 16.20346 0 0 0
240 -30.46228 -55.48646 15.83064 0 0 0
241 -31.12905 -55.48624 15.08538 0 0 0
242 -11.19193 -46.57512 32.99724 0 0 0
243 -11.25810 -47.43535 33.50282 0 0 0
244 -11.32427 -47.42763 34.50060 0 0 0
245 -11.39043 -48.28786 35.00618 0 0 0
246 -11.45660 -48.28014 36.00396 0 0 0
247 -11.52277 -49.14037 36.50954 0 0 0
248 -11.58894 -49.13265 37.50732 0 0 0
249 -11.65511 -49.99289 38.01290 0 0 0
250 -11.72128 -49.98516 39.01067 0 0 0
251 -11.78745 -50.84540 39.51626 0 0 0
252 -11.85362 -50.83767 40.51403 0 0 0
253 -11.91979 -51.69791 41.01962 0 0 0
254 -11.98596 -51.69018 42.01739 0 0 0
255 -12.05212 -52.55042 42.52298 0 0 0
256 -12.11829 -52.54269 43.52075 0 0 0
257 -12.18446 -53.40293 44.02633 0 0 0
258 -12.25063 -53.39520 45.02411 0 0 0
259 -12.31680 -54.25544 45.52969 0 0 0
260 -12.38297 -54.24771 46.52747 0 0 0
261 -12.44914 -55.10795 47.03305 0 0 0
262 -12.51531 -55.10022 48.03083 0 0 0
263 -12.58148 -55.96046 48.53641 0 0 0
264 -12.64765 -55.95273 49.53419 0 0 0
265 -12.71381 -56.81297 50.03977 0 0 0
266 -12.77998 -56.80524 51.03755 0 0 0
267 -12.84615 -57.66548 51.54313 0 0 0
268 -12.91232 -57.65776 52.54091 0 0 0
269 -12.97849 -58.51799 53.04649 0 0 0
270 -13.04466 -58.51027 54.04427 0 0 0
271 -13.11083 -59.37050 54.54985 0 0 0
272 -10.20456 -46.19010 31.75523 0 0 0
273 -9.28337 -46.09589 31.37770 0 0 0
274 -8.36217 -46.37574 31.10736 0 0 0
275 -7.44097 -46.28154 30.72984 0 0 0
276 -6.51978 -46.56138 30.45949 0 0 0
277 -5.59858 -46.46718 30.08197 0 0 0
278 -4.67738 -46.74702 29.81163 0 0 0
279 -3.75619 -46.65282 29.43411 0 0 0
280 -2.83499 -46.93266 29.16376 0 0 0
281 -1.91380 -46.83846 28.78624 0 0 0
282 -0.99260 -47.11830 28.51590 0 0 0
283 -0.07140 -47.02410 28.13838 0 0 0
284 0.84979 -47.30394 27.86803 0 0 0
285 1.77099 -47.20974 27.49051 0 0 0
286 2.69219 -47.48958 27.22017 0 0 0
287 3.61338 -47.39538 26.84264 0 0 0
288 4.53458 -47.67522 26.57230 0 0 0
289 5.45577 -47.58102 26.19478 0 0 0
290 6.37697 -47.86086 25.92444 0 0 0
291 7.29817 -47.76666 25.54691 0 0 0
292 8.21936 -48.04650 25.27657 0 0 0
293 9.14056 -47.95230 24.89905 0 0 0
294 10.06176 -48.23214 24.62870 0 0 0
295 10.98295 -48.13794 24.25118 0 0 0
296 11.90415 -48.41778 23.98084 0 0 0
297 12.82535 -48.32358 23.60332 0 0 0
298 13.74654 -48.60342 23.33297 0 0 0
299 14.66774 -48.50922 22.95545 0 0 0
300 15.58893 -48.78906 22.68511 0 0 0
301 16.51013 -48.69486 22.30759 0 0 0
ITEM: TIMESTEP
1000
ITEM: NUMBER OF ATOMS
301
ITEM: BOX BOUNDS pp pp pp
-1.0000000000000000e+03 1.0000000000000000e+03
-1.0000000000000000e+03 1.0000000000000000e+03
-1.0000000000000000e+03 1.0000000000000000e+03
ITEM: ATOMS id x y z ix iy iz
1 0.89710 -0.21221 4.91015 0 0 0
2 1.15450 0.60058 5.37825 0 0 0
3 1.05157 0.95741 6.27937 0 0 0
4 0.11756 0.90833 6.71889 0 0 0
5 -0.59934 0.28584 6.72332 0 0 0
6 -0.78831 -0.18334 7.58138 0 0 0
7 -0.55578 -0.12821 8.60479 0 0 0
8 0.40023 -0.12470 8.83758 0 0 0
9 1.19737 -0.74703 9.08635 0 0 0
10 0.34939 -1.42129 9.21366 0 0 0
11 -0.14231 -1.67126 10.01280 0 0 0
12 -0.09000 -1.23895 10.89494 0 0 0
13 -0.02827 -1.19825 11.95984 0 0 0
14 -0.72095 -1.29961 12.65757 0 0 0
15 -0.95515 -0.98619 13.58018 0 0 0
16 -1.39668 -0.69347 14.44431 0 0 0
17 -1.10704 -0.91327 15.35599 0 0 0
18 -0.77251 -1.10498 16.26463 0 0 0
19 -0.77069 -1.83467 16.86881 0 0 0
20 -0.30241 -1.49203 17.64867 0 0 0
21 -0.01320 -1.41866 18.59171 0 0 0
22 0.19992 -1.24982 19.56358 0 0 0
23 0.64167 -1.22875 20.47949 0 0 0
24 0.68134 -2.01263 21.06290 0 0 0
25 0.53165 -1.75960 22.01367 0 0 0
26 0.33179 -1.54545 22.92031 0 0 0
27 -0.00818 -0.79070 23.40056 0 0 0
28 -0.82792 -1.02441 23.95218 0 0 0
29 -0.46725 -0.90013 24.84237 0 0 0
30 -0.88047 -1.00651 25.75336 0 0 0
31 -0.87392 -1.67546 26.43762 0 0 0
32 -1.68466 -1.11223 26.66182 0 0 0
33 -1.56559 -0.22545 26.98718 0 0 0
34 -1.83879 0.72517 27.03787 0 0 0
35 -2.15258 0.95371 28.00087 0 0 0
36 -2.73291 1.21658 28.85459 0 0 0
37 -3.25920 0.79383 29.48074 0 0 0
38 -3.86498 1.20340 30.11370 0 0 0
39 -4.50732 1.42524 30.76069 0 0 0
40 -4.87147 1.76859 31.55286 0 0 0
41 -5.14707 1.76320 32.50672 0 0 0
42 -5.45849 2.25763 33.23763 0 0 0
43 -5.18172 3.10464 33.65364 0 0 0
44 -5.09408 3.26886 34.62615 0 0 0
45 -5.50227 2.99277 35.51646 0 0 0
46 -5.83970 3.88397 35.90696 0 0 0
47 -6.43315 3.94608 36.69133 0 0 0
48 -7.10097 4.50198 37.17794 0 0 0
49 -7.42131 5.22002 37.66694 0 0 0
50 -7.20620 5.52729 38.53089 0 0 0
51 -7.22989 6.49796 38.83383 0 0 0
52 -6.91264 7.42986 39.09347 0 0 0
53 -7.46542 8.26710 39.38886 0 0 0
54 -7.54002 9.19779 39.49538 0 0 0
55 -7.57501 10.06585 39.87733 0 0 0
56 -7.50594 11.09615 39.87477 0 0 0
57 -7.96460 11.94303 40.00343 0 0 0
58 -8.62636 12.65337 40.14916 0 0 0
59 -9.03991 12.94469 40.94363 0 0 0
60 -9.78239 12.72676 40.42813 0 0 0
61 -10.64945 12.31401 40.68962 0 0 0
62 -0.10609 -1.87345 27.08943 0 0 0
63 0.61733 -2.24897 27.51018 0 0 0
64 1.53573 -2.25117 27.40194 0 0 0
65 2.40506 -2.01169 27.55528 0 0 0
66 3.39041 -2.04560 27.69126 0 0 0
67 4.37852 -1.95059 27.44293 0 0 0
68 5.21811 -1.74045 27.87606 0 0 0
69 6.05902 -2.29859 27.87624 0 0 0
70 6.90269 -2.31832 28.39533 0 0 0
71 7.89126 -2.31725 28.50053 0 0 0
72 8.46408 -3.01604 28.16996 0 0 0
73 9.34474 -3.37957 28.40460 0 0 0
74 9.97088 -4.05097 28.58722 0 0 0
75 10.90387 -4.22801 28.46591 0 0 0
76 11.62216 -4.15469 29.09659 0 0 0
77 12.55382 -3.75949 28.96507 0 0 0
78 12.58043 -4.67898 28.80134 0 0 0
79 13.49888 -4.85683 28.97138 0 0 0
80 14.27972 -5.32245 28.74193 0 0 0
81 15.20169 -5.49780 28.57866 0 0 0
82 15.19590 -5.28384 29.62786 0 0 0
83 15.99840 -5.13227 30.23945 0 0 0
84 16.72706 -4.97969 30.96583 0 0 0
85 17.49193 -5.11121 31.60366 0 0 0
86 18.44274 -5.36894 31.82794 0 0 0
87 18.64786 -6.09744 31.24853 0 0 0
88 18.95168 -6.96368 31.56620 0 0 0
89 19.62250 -7.55735 31.09897 0 0 0
90 20.07323 -8.33709 31.19557 0 0 0
91 20.02581 -8.65694 30.31433 0 0 0
92 -1.07911 -2.62974 26.59557 0 0 0
93 -1.38074 -3.49265 26.21606 0 0 0
94 -2.10654 -3.95877 25.66264 0 0 0
95 -1.93461 -4.84778 25.26210 0 0 0
96 -1.78614 -5.78427 25.41067 0 0 0
97 -2.19898 -6.75910 25.50017 0 0 0
98 -2.85288 -7.51762 25.59141 0 0 0
99 -3.72792 -7.78730 25.93604 0 0 0
100 -4.65076 -8.09450 25.75210 0 0 0
101 -5.08681 -8.70110 25.08322 0 0 0
102 -6.01809 -8.91518 25.10739 0 0 0
103 -6.63125 -9.62270 24.89977 0 0 0
104 -7.59048 -9.84924 25.00934 0 0 0
105 -8.22495 -10.31486 24.45871 0 0 0
106 -9.16047 -10.25509 24.73976 0 0 0
107 -9.81255 -10.85182 25.22617 0 0 0
108 -9.84347 -11.91988 25.26563 0 0 0
109 -10.26148 -12.78372 25.06318 0 0 0
110 -10.83384 -13.56231 24.86843 0 0 0
111 -11.24100 -14.35824 25.24775 0 0 0
112 -11.30837 -15.25175 25.12508 0 0 0
113 -12.13803 -15.60994 24.67995 0 0 0
114 -13.03915 -15.81750 24.51889 0 0 0
115 -13.68284 -16.53802 24.22517 0 0 0
116 -14.22960 -16.90686 24.96688 0 0 0
117 -14.98685 -17.51669 25.14719 0 0 0
118 -14.95092 -18.32078 24.68105 0 0 0
119 -15.13076 -19.17175 24.27225 0 0 0
120 -15.85276 -19.73374 24.04178 0 0 0
121 -16.51358 -20.44544 23.90218 0 0 0
122 -16.70386 -21.06747 23.05263 0 0 0
123 -17.41614 -21.15755 22.30316 0 0 0
124 -17.71661 -21.22519 21.33232 0 0 0
125 -17.35254 -21.48962 20.47125 0 0 0
126 -17.17026 -21.50727 19.48388 0 0 0
127 -17.05970 -21.56687 18.39313 0 0 0
128 -16.94223 -21.82684 17.42537 0 0 0
129 -17.26247 -21.37115 16.64140 0 0 0
130 -17.28332 -21.45865 15.67812 0 0 0
131 -16.77425 -21.58129 14.89232 0 0 0
132 -15.90241 -21.86997 14.43918 0 0 0
133 -15.28374 -21.84569 13.69255 0 0 0
134 -14.94718 -21.81648 12.83451 0 0 0
135 -14.73009 -21.36779 11.97316 0 0 0
136 -14.78616 -21.67583 11.06612 0 0 0
137 -14.21414 -21.17505 10.43331 0 0 0
138 -14.43122 -21.17581 9.45888 0 0 0
139 -13.61016 -20.66788 9.76261 0 0 0
140 -13.11613 -20.10484 9.19757 0 0 0
141 -12.91913 -19.69838 8.36747 0 0 0
142 -12.46170 -19.68175 7.53777 0 0 0
143 -12.11425 -20.35697 6.91023 0 0 0
144 -12.52322 -19.87677 6.21640 0 0 0
145 -12.56344 -19.70739 5.26474 0 0 0
146 -12.38579 -19.94331 4.34197 0 0 0
147 -12.63414 -19.18679 3.76407 0 0 0
148 -12.19505 -18.82112 2.78281 0 0 0
149 -11.19936 -18.62306 2.94745 0 0 0
150 -11.46496 -18.74464 2.06318 0 0 0
151 -11.12797 -18.58861 1.19499 0 0 0
152 -17.48529 -20.11907 23.78766 0 0 0
153 -18.49424 -20.20712 23.53671 0 0 0
154 -19.37348 -19.67012 23.82356 0 0 0
155 -20.24169 -19.38402 24.17962 0 0 0
156 -21.17244 -19.37734 24.19071 0 0 0
157 -22.04646 -19.34814 23.92944 0 0 0
158 -23.07598 -19.51225 23.78432 0 0 0
159 -23.83405 -19.85852 23.38343 0 0 0
160 -24.67071 -19.57347 23.14323 0 0 0
161 -25.35282 -18.94043 23.45605 0 0 0
162 -25.82681 -18.82485 24.36514 0 0 0
163 -26.70716 -18.78042 24.89448 0 0 0
164 -27.63958 -18.52700 25.00441 0 0 0
165 -28.38405 -17.94338 24.74048 0 0 0
166 -29.37952 -17.91478 24.43916 0 0 0
167 -30.39276 -17.51584 24.22180 0 0 0
168 -30.80174 -18.35633 24.01294 0 0 0
169 -31.65430 -17.91468 24.29509 0 0 0
170 -32.59955 -18.25902 24.26905 0 0 0
171 -33.07957 -17.88016 25.00775 0 0 0
172 -33.86618 -17.59257 25.43236 0 0 0
173 -34.71126 -17.23804 25.73562 0 0 0
174 -35.66829 -17.59745 25.71375 0 0 0
175 -36.12528 -17.48429 24.84859 0 0 0
176 -37.11727 -17.39490 24.86902 0 0 0
177 -37.85069 -16.90575 24.48947 0 0 0
178 -38.32747 -16.13348 24.90931 0 0 0
179 -38.54513 -16.34853 25.90690 0 0 0
180 -38.89556 -16.72960 26.73576 0 0 0
181 -38.81448 -17.73854 26.42164 0 0 0
182 -16.31932 -21.44267 23.92778 0 0 0
183 -16.22162 -22.42124 23.76899 0 0 0
184 -16.08412 -23.46742 23.70076 0 0 0
185 -15.51531 -24.37228 23.90035 0 0 0
186 -15.15792 -25.00484 24.55270 0 0 0
187 -14.91485 -25.76484 25.12169 0 0 0
188 -15.38018 -26.69144 25.17550 0 0 0
189 -15.04157 -27.57050 25.26322 0 0 0
190 -14.49425 -28.30664 25.58427 0 0 0
191 -14.34973 -29.19196 26.07174 0 0 0
192 -14.42957 -30.17860 26.23728 0 0 0
193 -13.74059 -30.86158 26.60253 0 0 0
194 -13.57902 -31.77748 26.38557 0 0 0
195 -13.48310 -32.58584 27.02869 0 0 0
196 -12.93100 -33.22376 27.52793 0 0 0
197 -13.64311 -33.89163 27.44496 0 0 0
198 -13.41538 -34.81550 27.30905 0 0 0
199 -13.56028 -35.78234 27.46062 0 0 0
200 -13.02893 -36.62371 27.47306 0 0 0
201 -12.96205 -37.45724 28.07586 0 0 0
202 -12.58097 -38.05981 28.69187 0 0 0
203 -11.93276 -38.79096 29.05705 0 0 0
204 -11.57027 -39.65690 29.23542 0 0 0
205 -11.08052 -40.42871 28.89587 0 0 0
206 -11.40568 -41.01244 29.66508 0 0 0
207 -11.27991 -41.97763 29.57228 0 0 0
208 -11.12404 -42.88824 29.46701 0 0 0
209 -10.95819 -43.75775 30.02852 0 0 0
210 -10.98058 -44.64337 30.59985 0 0 0
211 -11.18532 -45.64399 30.75824 0 0 0
212 -11.99122 -46.10515 30.36351 0 0 0
213 -12.42762 -46.06164 29.36792 0 0 0
214 -12.34979 -46.48217 28.55997 0 0 0
215 -12.56300 -47.34548 28.23437 0 0 0
216 -12.85686 -48.02210 27.66194 0 0 0
217 -13.69199 -48.14370 27.20183 0 0 0
218 -14.57080 -48.45622 26.89210 0 0 0
219 -15.06205 -49.20250 27.30903 0 0 0
220 -15.31150 -49.81379 26.55347 0 0 0
221 -16.21033 -49.86953 26.20889 0 0 0
222 -16.83476 -50.01584 25.41487 0 0 0
223 -17.40752 -50.79691 25.58769 0 0 0
224 -18.20704 -50.86750 24.97470 0 0 0
225 -19.08207 -51.21368 24.71946 0 0 0
226 -19.64753 -51.58243 23.99478 0 0 0
227 -20.50602 -51.89804 23.53553 0 0 0
228 -20.98582 -52.76082 23.14311 0 0 0
229 -21.66035 -53.07557 22.51787 0 0 0
230 -22.29024 -52.90887 21.82966 0 0 0
231 -23.02660 -53.06141 21.23512 0 0 0
232 -23.37244 -53.57041 20.43064 0 0 0
233 -24.30228 -53.34494 20.10345 0 0 0
234 -25.29357 -53.08964 20.29755 0 0 0
235 -25.55049 -52.11928 20.05104 0 0 0
236 -25.93983 -51.37259 19.51234 0 0 0
237 -26.83127 -51.85578 19.34294 0 0 0
238 -27.06948 -52.68959 19.75501 0 0 0
239 -26.96819 -52.67927 20.66945 0 0 0
240 -27.81954 -53.11767 20.73361 0 0 0
241 -27.72768 -54.06749 20.92726 0 0 0
242 -10.73894 -46.05567 31.58467 0 0 0
243 -11.16022 -46.57162 32.35177 0 0 0
244 -11.31171 -47.28106 33.04181 0 0 0
245 -11.40485 -47.43101 34.06961 0 0 0
246 -11.32827 -48.31610 34.32684 0 0 0
247 -11.34198 -49.05637 34.97674 0 0 0
248 -11.47824 -49.66009 35.80412 0 0 0
249 -11.65591 -49.84489 36.71154 0 0 0
250 -12.58414 -50.22711 36.65012 0 0 0
251 -12.31569 -50.71106 37.44538 0 0 0
252 -12.64361 -51.34280 38.29148 0 0 0
253 -11.98488 -51.60270 38.86334 0 0 0
254 -11.32262 -52.07166 39.37320 0 0 0
255 -11.33931 -52.93994 39.79171 0 0 0
256 -11.16239 -53.58021 40.52663 0 0 0
257 -10.97070 -53.34888 41.48006 0 0 0
258 -10.94320 -53.44201 42.42741 0 0 0
259 -10.68744 -53.21962 43.39374 0 0 0
260 -10.99548 -54.12874 43.81753 0 0 0
261 -10.90770 -53.40492 44.51572 0 0 0
262 -11.26358 -53.28492 45.40012 0 0 0
263 -11.35839 -53.82530 46.19927 0 0 0
264 -12.39743 -54.04962 46.24085 0 0 0
265 -12.08993 -53.97558 47.17142 0 0 0
266 -11.95742 -54.42104 48.05884 0 0 0
267 -11.44274 -54.25629 48.88889 0 0 0
268 -12.18217 -54.03979 49.59025 0 0 0
269 -12.98417 -54.37975 49.23691 0 0 0
270 -13.07289 -54.94872 48.45869 0 0 0
271 -12.24649 -55.34678 48.68742 0 0 0
272 -10.54656 -46.43153 30.30119 0 0 0
273 -9.54229 -46.65752 30.58753 0 0 0
274 -8.74697 -46.12143 30.66002 0 0 0
275 -7.95525 -45.55532 30.55288 0 0 0
276 -7.25188 -46.04249 30.13236 0 0 0
277 -6.38993 -46.52707 30.04971 0 0 0
278 -5.50644 -46.69183 29.54362 0 0 0
279 -5.21197 -47.51640 29.98794 0 0 0
280 -4.40785 -47.58091 29.43937 0 0 0
281 -3.50252 -47.68241 28.92577 0 0 0
282 -2.60546 -47.06898 28.70604 0 0 0
283 -1.77401 -47.18391 28.26286 0 0 0
284 -0.88844 -46.84432 28.61926 0 0 0
285 0.01026 -47.00242 28.46170 0 0 0
286 0.73040 -46.24460 28.46326 0 0 0
287 1.31541 -46.92694 28.16793 0 0 0
288 1.91137 -47.15681 27.39605 0 0 0
289 2.94008 -47.24437 27.26078 0 0 0
290 3.49306 -47.96730 26.80137 0 0 0
291 4.27898 -47.97595 26.28792 0 0 0
292 4.52851 -47.03664 25.97816 0 0 0
293 5.21470 -47.19077 26.67852 0 0 0
294 6.02689 -46.96656 26.18052 0 0 0
295 6.83333 -47.18319 25.69342 0 0 0
296 7.27553 -47.96389 25.23403 0 0 0
297 7.70106 -48.81451 25.09174 0 0 0
298 8.63387 -48.76958 24.93354 0 0 0
299 8.16620 -47.96099 24.76361 0 0 0
300 8.77329 -47.48330 24.22012 0 0 0
301 8.75651 -47.41345 23.26079 0 0 0
ITEM: TIMESTEP
2000
ITEM: NUMBER OF ATOMS
301
ITEM: BOX BOUNDS pp pp pp
-1.0000000000000000e+03 1.0000000000000000e+03
-1.0000000000000000e+03 1.0000000000000000e+03
-1.0000000000000000e+03 1.0000000000000000e+03
ITEM: ATOMS id x y z ix iy iz
1 -1.67802 1.76744 6.29425 0 0 0
2 -0.94108 2.44861 6.25250 0 0 0
3 -0.34231 2.38974 7.11389 0 0 0
4 0.52455 2.29952 7.47302 0 0 0
5 0.75486 1.65256 8.22565 0 0 0
6 1.10067 1.84234 9.12533 0 0 0
7 0.64312 1.68551 9.98211 0 0 0
8 0.48590 1.43853 10.87480 0 0 0
9 1.26063 1.22395 11.45638 0 0 0
10 1.64181 0.47543 11.87076 0 0 0
11 1.01004 -0.04382 12.41945 0 0 0
12 0.50603 -0.00712 13.20398 0 0 0
13 0.74451 -0.71348 13.80039 0 0 0
14 0.85819 -1.33253 14.60864 0 0 0
15 0.92392 -0.44201 15.06644 0 0 0
16 0.47943 -0.02537 15.88957 0 0 0
17 0.50525 -0.51811 16.71021 0 0 0
18 1.27307 -1.15102 16.93528 0 0 0
19 1.39332 -0.90892 17.84862 0 0 0
20 1.42710 -0.72337 18.77615 0 0 0
21 0.48423 -0.92878 18.81456 0 0 0
22 0.22280 -1.51836 19.56566 0 0 0
23 -0.15585 -1.87230 20.44716 0 0 0
24 0.03135 -2.58192 21.07725 0 0 0
25 0.33156 -2.61922 21.99034 0 0 0
26 0.10849 -3.15768 22.90230 0 0 0
27 0.19121 -3.68581 23.83084 0 0 0
28 -0.45875 -3.16326 24.30976 0 0 0
29 -0.43875 -3.12743 25.28792 0 0 0
30 -1.21317 -3.01216 25.81412 0 0 0
31 -1.13771 -2.92453 26.79141 0 0 0
32 -1.57327 -2.06209 27.21959 0 0 0
33 -2.38461 -1.64746 27.69918 0 0 0
34 -2.88450 -1.00079 28.27632 0 0 0
35 -2.75026 -0.51971 29.11959 0 0 0
36 -2.91310 -0.34747 30.00434 0 0 0
37 -3.69885 -0.31164 30.73533 0 0 0
38 -4.37483 0.16953 31.33582 0 0 0
39 -4.38214 1.11770 31.54306 0 0 0
40 -4.93502 1.63719 32.22377 0 0 0
41 -5.33988 2.06273 32.95137 0 0 0
42 -5.87939 2.66902 33.51525 0 0 0
43 -5.39700 3.56699 33.61917 0 0 0
44 -5.44981 4.44310 33.16811 0 0 0
45 -5.07434 5.00440 33.88945 0 0 0
46 -5.74689 5.28564 34.43624 0 0 0
47 -6.17405 6.16703 34.68372 0 0 0
48 -6.47465 6.63713 35.43391 0 0 0
49 -6.71498 7.13296 36.25835 0 0 0
50 -7.01090 7.83313 36.88566 0 0 0
51 -6.56235 8.29364 37.60230 0 0 0
52 -7.01696 8.99595 38.10005 0 0 0
53 -7.22220 8.91018 39.02794 0 0 0
54 -7.94043 8.68585 39.71537 0 0 0
55 -8.47300 8.92494 40.40094 0 0 0
56 -9.25364 9.24288 40.95668 0 0 0
57 -9.89629 9.93744 40.86868 0 0 0
58 -10.46209 10.15503 40.13516 0 0 0
59 -10.73585 11.05357 39.82622 0 0 0
60 -10.05581 11.10111 39.06452 0 0 0
61 -9.26138 11.19519 38.56784 0 0 0
62 -0.20866 -3.13398 26.74916 0 0 0
63 0.71623 -2.92351 26.88659 0 0 0
64 1.53941 -2.44024 26.71041 0 0 0
65 2.43203 -2.62458 26.52645 0 0 0
66 3.34222 -2.90564 26.71117 0 0 0
67 3.87489 -3.27590 27.55373 0 0 0
68 4.22377 -3.16899 28.48445 0 0 0
69 4.92360 -3.85042 28.38749 0 0 0
70 5.72207 -4.02722 28.84731 0 0 0
71 6.29534 -4.37023 29.53920 0 0 0
72 7.10708 -4.14525 29.00002 0 0 0
73 8.11978 -4.12921 29.12704 0 0 0
74 9.02037 -4.25043 29.46773 0 0 0
75 9.75741 -3.66547 29.17604 0 0 0
76 10.63237 -3.42024 28.77022 0 0 0
77 11.51434 -3.75924 28.65622 0 0 0
78 11.90994 -4.38829 29.36936 0 0 0
79 12.47998 -4.93629 29.92057 0 0 0
80 13.33415 -5.36059 29.56324 0 0 0
81 14.16882 -5.26321 30.04719 0 0 0
82 15.17557 -5.74361 30.11681 0 0 0
83 15.72965 -6.54985 29.89003 0 0 0
84 15.46685 -6.92663 28.97321 0 0 0
85 16.41691 -7.32056 29.15385 0 0 0
86 16.99263 -6.84282 29.86942 0 0 0
87 17.72547 -7.54369 29.76542 0 0 0
88 17.63822 -8.08497 29.02067 0 0 0
89 16.85643 -8.06600 28.48069 0 0 0
90 17.16078 -9.04588 28.49470 0 0 0
91 18.10482 -8.85127 28.63196 0 0 0
92 -1.79982 -3.68356 26.77591 0 0 0
93 -1.66805 -3.60680 27.71678 0 0 0
94 -2.16766 -4.46927 27.60387 0 0 0
95 -2.26396 -5.40729 27.55441 0 0 0
96 -2.61451 -6.41118 27.62178 0 0 0
97 -3.14374 -6.84308 28.28675 0 0 0
98 -3.60084 -7.23160 27.58168 0 0 0
99 -3.80210 -8.12042 27.28409 0 0 0
100 -3.97015 -8.99540 26.90724 0 0 0
101 -4.86866 -9.24526 27.08126 0 0 0
102 -5.67599 -9.73631 26.73276 0 0 0
103 -5.62919 -10.71849 26.61345 0 0 0
104 -5.82961 -11.58225 26.26319 0 0 0
105 -6.71260 -11.89862 26.68014 0 0 0
106 -7.62841 -12.16783 26.83594 0 0 0
107 -8.57460 -12.41232 26.33273 0 0 0
108 -8.38768 -13.36504 26.21346 0 0 0
109 -9.09226 -13.71792 25.58306 0 0 0
110 -9.09496 -14.33706 24.79325 0 0 0
111 -9.35217 -15.27570 24.88487 0 0 0
112 -9.24497 -16.24731 24.79623 0 0 0
113 -10.26454 -16.27223 24.69567 0 0 0
114 -11.06138 -16.78445 24.53623 0 0 0
115 -11.98756 -16.78664 24.38669 0 0 0
116 -12.68117 -17.46548 24.63482 0 0 0
117 -12.83896 -18.36993 24.50167 0 0 0
118 -13.65054 -18.84483 24.44043 0 0 0
119 -14.32892 -19.55018 23.98570 0 0 0
120 -14.69931 -20.51358 23.89134 0 0 0
121 -15.48294 -20.88327 23.38741 0 0 0
122 -15.44458 -20.23479 22.67440 0 0 0
123 -15.38195 -19.78851 21.78814 0 0 0
124 -15.62496 -20.50449 21.10663 0 0 0
125 -15.96520 -20.25527 20.22359 0 0 0
126 -16.20683 -20.16259 19.29264 0 0 0
127 -15.87488 -19.72129 18.52204 0 0 0
128 -15.86102 -18.99188 17.82097 0 0 0
129 -15.53054 -19.77708 17.42377 0 0 0
130 -16.36968 -20.07597 16.98102 0 0 0
131 -16.98300 -19.45884 16.48166 0 0 0
132 -17.28371 -19.63699 15.55121 0 0 0
133 -17.37862 -19.80433 14.57734 0 0 0
134 -16.97730 -20.71672 14.51513 0 0 0
135 -16.14547 -20.90913 13.91524 0 0 0
136 -15.83263 -20.18045 13.11488 0 0 0
137 -15.45006 -19.83197 12.27932 0 0 0
138 -16.06394 -20.37556 11.67984 0 0 0
139 -15.29701 -20.57818 11.16189 0 0 0
140 -15.54393 -20.95907 10.27589 0 0 0
141 -15.19848 -21.40233 9.32767 0 0 0
142 -14.81130 -20.80999 8.66104 0 0 0
143 -14.20432 -21.50965 8.47446 0 0 0
144 -13.90190 -21.53913 7.49617 0 0 0
145 -13.04219 -21.56113 6.95305 0 0 0
146 -12.89031 -20.74950 6.38404 0 0 0
147 -12.36337 -20.84657 5.60187 0 0 0
148 -12.10686 -20.64958 4.65739 0 0 0
149 -12.83449 -19.94329 4.84607 0 0 0
150 -12.55231 -19.18964 5.40914 0 0 0
151 -11.63969 -18.96041 5.56371 0 0 0
152 -16.35660 -20.47414 23.23059 0 0 0
153 -17.32288 -20.40080 22.89344 0 0 0
154 -18.06144 -20.50955 23.62656 0 0 0
155 -18.94162 -20.66488 23.12065 0 0 0
156 -19.62566 -20.47439 23.78508 0 0 0
157 -20.46142 -20.24735 23.40321 0 0 0
158 -21.22538 -19.58741 23.29374 0 0 0
159 -21.87708 -19.71655 24.05810 0 0 0
160 -22.80167 -19.71987 24.07403 0 0 0
161 -23.74101 -19.72296 24.37211 0 0 0
162 -24.60367 -19.69114 23.95515 0 0 0
163 -25.41360 -19.62604 24.42762 0 0 0
164 -26.27855 -19.10860 24.48244 0 0 0
165 -26.69711 -18.25270 24.21099 0 0 0
166 -27.21125 -17.44222 24.13830 0 0 0
167 -28.12410 -17.18121 24.24099 0 0 0
168 -28.96539 -17.60768 24.28398 0 0 0
169 -29.83251 -17.22029 24.19438 0 0 0
170 -30.63702 -17.39590 24.81215 0 0 0
171 -31.43488 -18.00557 25.02905 0 0 0
172 -31.90003 -17.79414 25.95178 0 0 0
173 -32.79248 -17.85402 26.19917 0 0 0
174 -33.63542 -17.34831 26.26060 0 0 0
175 -34.55293 -17.17736 26.04334 0 0 0
176 -35.60075 -17.25036 26.23369 0 0 0
177 -35.51658 -17.07745 25.30417 0 0 0
178 -35.82020 -17.92327 24.86439 0 0 0
179 -36.53001 -18.51752 25.02187 0 0 0
180 -37.41641 -18.06696 25.12513 0 0 0
181 -37.45641 -17.13477 25.34237 0 0 0