ITEM: TIMESTEP
0
ITEM: NUMBER OF ATOMS
101
ITEM: BOX BOUNDS pp pp pp
-1.0000000000000000e+03 1.0000000000000000e+03
-1.0000000000000000e+03 1.0000000000000000e+03
-1.0000000000000000e+03 1.0000000000000000e+03
ITEM: ATOMS id x y z ix iy iz
1 0.00000 0.00000 0.00000 0 0 0
2 0.00000 0.00000 1.00000 0 0 0
3 0.00000 -0.50000 1.86603 0 0 0
4 0.00000 0.00000 2.73205 0 0 0
5 0.00000 -0.50000 3.59808 0 0 0
6 0.00000 0.00000 4.46410 0 0 0
7 0.00000 -0.50000 5.33013 0 0 0
8 0.00000 0.00000 6.19615 0 0 0
9 0.00000 -0.50000 7.06218 0 0 0
10 0.00000 0.00000 7.92820 0 0 0
11 0.00000 -0.50000 8.79423 0 0 0
12 0.93651 -0.75988 9.02963 0 0 0
13 1.87302 -1.10265 9.10356 0 0 0
14 2.80952 -1.21001 9.43736 0 0 0
15 3.74603 -1.55278 9.51129 0 0 0
16 4.68254 -1.66014 9.84510 0 0 0
17 5.61905 -2.00290 9.91902 0 0 0
18 6.55555 -2.11027 10.25283 0 0 0
19 7.49206 -2.45303 10.32675 0 0 0
20 8.42857 -2.56039 10.66056 0 0 0
21 9.36508 -2.90316 10.73449 0 0 0
22 -0.56123 -1.32280 8.70463 0 0 0
23 -1.12246 -1.99056 8.21565 0 0 0
24 -1.68370 -2.74792 8.54945 0 0 0
25 -2.24493 -3.41568 8.06047 0 0 0
26 -2.80616 -4.17304 8.39427 0 0 0
27 -3.36739 -4.84080 7.90528 0 0 0
28 -3.92862 -5.59816 8.23909 0 0 0
29 -4.48986 -6.26593 7.75010 0 0 0
30 -5.05109 -7.02329 8.08391 0 0 0
31 -5.61232 -7.69105 7.59492 0 0 0
32 -0.37528 0.08197 9.51567 0 0 0
33 -0.75055 0.22524 10.43145 0 0 0
34 -1.12583 1.08996 10.76525 0 0 0
35 -1.50110 1.23324 11.68103 0 0 0
36 -1.87638 2.09796 12.01483 0 0 0
37 -2.25165 2.24123 12.93061 0 0 0
38 -2.62693 3.10595 13.26441 0 0 0
39 -3.00220 3.24923 14.18019 0 0 0
40 -3.37748 4.11395 14.51399 0 0 0
41 -3.75276 4.25722 15.42977 0 0 0
42 -3.06875 4.00458 16.11410 0 0 0
43 -2.38475 3.44363 16.58043 0 0 0
44 -1.70074 3.56700 17.29940 0 0 0
45 -1.01674 3.00604 17.76573 0 0 0
46 -0.33273 3.12942 18.48470 0 0 0
47 0.35127 2.56846 18.95103 0 0 0
48 1.03527 2.69183 19.67000 0 0 0
49 1.71928 2.13088 20.13633 0 0 0
50 2.40328 2.25425 20.85530 0 0 0
51 3.08729 1.69329 21.32163 0 0 0
52 -4.56794 3.69040 15.54890 0 0 0
53 -5.38312 3.13995 15.36867 0 0 0
54 -6.19830 2.70864 15.75525 0 0 0
55 -7.01348 2.15819 15.57501 0 0 0
56 -7.82867 1.72688 15.96160 0 0 0
57 -8.64385 1.17643 15.78136 0 0 0
58 -9.45903 0.74512 16.16794 0 0 0
59 -10.27421 0.19467 15.98771 0 0 0
60 -11.08939 -0.23665 16.37429 0 0 0
61 -11.90457 -0.78709 16.19405 0 0 0
62 -3.99739 5.22016 15.54337 0 0 0
63 -4.24202 5.99729 16.12323 0 0 0
64 -4.48665 6.88802 15.74015 0 0 0
65 -4.73128 7.66514 16.32000 0 0 0
66 -4.97591 8.55587 15.93692 0 0 0
67 -5.22054 9.33300 16.51677 0 0 0
68 -5.46517 10.22373 16.13369 0 0 0
69 -5.70981 11.00086 16.71355 0 0 0
70 -5.95444 11.89159 16.33046 0 0 0
71 -6.19907 12.66871 16.91032 0 0 0
72 -5.92067 13.51907 16.46379 0 0 0
73 -5.64228 14.47877 16.50226 0 0 0
74 -5.36388 14.99193 15.69038 0 0 0
75 -5.08549 15.95163 15.72885 0 0 0
76 -4.80709 16.46479 14.91696 0 0 0
77 -4.52870 17.42449 14.95543 0 0 0
78 -4.25030 17.93765 14.14355 0 0 0
79 -3.97191 18.89735 14.18202 0 0 0
80 -3.69352 19.41052 13.37013 0 0 0
81 -3.41512 20.37021 13.40861 0 0 0
82 -5.73321 12.58745 17.79144 0 0 0
83 -5.26736 12.07651 18.51388 0 0 0
84 -4.80150 12.44669 19.31759 0 0 0
85 -4.33564 11.93576 20.04003 0 0 0
86 -3.86979 12.30594 20.84373 0 0 0
87 -3.40393 11.79500 21.56617 0 0 0
88 -2.93808 12.16519 22.36988 0 0 0
89 -2.47222 11.65425 23.09232 0 0 0
90 -2.00636 12.02443 23.89603 0 0 0
91 -1.54051 11.51349 24.61847 0 0 0
92 -7.18830 12.67785 17.05641 0 0 0
93 -8.17753 12.61272 17.18749 0 0 0
94 -9.16676 12.69368 17.30944 0 0 0
95 -10.15598 12.62854 17.44052 0 0 0
96 -11.14521 12.70950 17.56247 0 0 0
97 -12.13444 12.64437 17.69356 0 0 0
98 -13.12367 12.72533 17.81550 0 0 0
99 -14.11290 12.66020 17.94659 0 0 0
100 -15.10213 12.74115 18.06854 0 0 0
101 -16.09136 12.67602 18.19962 0 0 0
ITEM: TIMESTEP
1000
ITEM: NUMBER OF ATOMS
101
ITEM: BOX BOUNDS pp pp pp
-1.0000000000000000e+03 1.0000000000000000e+03
-1.0000000000000000e+03 1.0000000000000000e+03
-1.0000000000000000e+03 1.0000000000000000e+03
ITEM: ATOMS id x y z ix iy iz
1 -0.61302 2.20943 5.08252 0 0 0
2 0.12279 1.81470 4.55209 0 0 0
3 -0.71233 1.32632 4.53157 0 0 0
4 -1.63446 1.15854 4.83588 0 0 0
5 -2.23625 0.45524 5.25095 0 0 0
6 -3.03458 0.18611 5.82335 0 0 0
7 -3.28120 -0.26405 6.61174 0 0 0
8 -2.95678 -1.04684 7.15081 0 0 0
9 -2.62050 -1.44279 8.02321 0 0 0
10 -3.03376 -0.82309 8.67878 0 0 0
11 -3.34449 -0.72109 9.61978 0 0 0
12 -2.51219 -1.10484 9.97762 0 0 0
13 -1.76443 -1.67746 10.33143 0 0 0
14 -1.67945 -2.56784 9.90812 0 0 0
15 -1.32624 -2.38366 8.93950 0 0 0
16 -0.83751 -2.84537 8.08215 0 0 0
17 -0.33453 -3.10638 8.85270 0 0 0
18 0.19329 -3.67492 8.25709 0 0 0
19 0.99735 -3.19855 8.41226 0 0 0
20 1.22154 -2.58168 7.65108 0 0 0
21 0.29067 -2.77318 7.78850 0 0 0
22 -3.62596 -1.39294 10.15321 0 0 0
23 -4.25297 -2.12535 10.10495 0 0 0
24 -4.44360 -3.05526 9.91385 0 0 0
25 -4.50102 -3.72423 9.24265 0 0 0
26 -4.06386 -4.28722 8.50804 0 0 0
27 -3.42800 -4.44665 7.78346 0 0 0
28 -3.15914 -4.20274 6.88602 0 0 0
29 -3.67434 -4.67788 6.18589 0 0 0
30 -4.54704 -4.72340 5.76061 0 0 0
31 -4.66053 -5.29600 4.99501 0 0 0
32 -3.25570 -0.03236 10.25850 0 0 0
33 -3.89374 0.00123 11.03350 0 0 0
34 -4.29234 0.68207 11.52830 0 0 0
35 -3.81298 1.33412 12.05980 0 0 0
36 -3.54260 0.73620 12.76276 0 0 0
37 -3.39176 1.67544 13.32201 0 0 0
38 -3.45567 2.28871 14.10170 0 0 0
39 -3.70920 3.03847 14.67639 0 0 0
40 -3.78480 3.73070 15.37617 0 0 0
41 -3.75554 4.45546 16.04671 0 0 0
42 -2.78057 4.54770 16.35781 0 0 0
43 -2.43697 4.55273 17.37627 0 0 0
44 -1.83972 3.76051 17.36702 0 0 0
45 -0.83276 4.20088 17.44903 0 0 0
46 -0.31949 3.42129 17.43680 0 0 0
47 0.57300 3.15755 17.83174 0 0 0
48 0.56703 3.79741 18.57287 0 0 0
49 0.59932 4.50904 19.17436 0 0 0
50 0.11213 4.97575 19.84540 0 0 0
51 -0.12780 5.50483 20.68170 0 0 0
52 -4.62741 4.02704 15.99392 0 0 0
53 -5.47325 3.78096 15.61242 0 0 0
54 -6.48273 3.82765 15.51082 0 0 0
55 -7.17028 3.76566 14.81789 0 0 0
56 -8.06834 3.34626 14.93695 0 0 0
57 -8.64683 3.11748 15.67933 0 0 0
58 -8.32567 2.31258 16.24705 0 0 0
59 -8.46349 1.35679 16.23076 0 0 0
60 -8.81414 0.76192 15.54874 0 0 0
61 -9.01520 1.69141 15.20921 0 0 0
62 -4.23618 5.25598 15.73663 0 0 0
63 -3.90647 6.22193 15.49837 0 0 0
64 -3.65187 7.14386 15.60083 0 0 0
65 -4.16449 7.88148 15.94790 0 0 0
66 -3.87151 8.75733 16.36778 0 0 0
67 -4.10602 9.77513 16.45127 0 0 0
68 -4.05027 10.53101 15.89040 0 0 0
69 -4.81191 10.55752 16.60984 0 0 0
70 -5.76984 10.59515 16.56138 0 0 0
71 -6.12352 11.46794 17.00217 0 0 0
72 -5.36862 11.70216 16.48850 0 0 0
73 -4.54098 12.23957 16.35342 0 0 0
74 -4.24863 12.92510 15.77686 0 0 0
75 -3.84672 13.72259 15.32923 0 0 0
76 -4.27885 14.20394 14.46705 0 0 0
77 -4.57208 15.07095 14.96089 0 0 0
78 -4.45856 15.85646 15.47903 0 0 0
79 -4.73872 16.75794 15.35814 0 0 0
80 -4.27818 17.56037 15.51053 0 0 0
81 -4.76933 18.43587 15.42750 0 0 0
82 -6.36040 11.41634 17.92740 0 0 0
83 -6.60848 12.21329 18.46319 0 0 0
84 -6.60444 12.98030 19.12926 0 0 0
85 -5.96275 12.26671 19.37949 0 0 0
86 -5.64623 11.57141 20.15714 0 0 0
87 -4.87286 12.04126 20.64741 0 0 0
88 -5.54386 12.61453 20.27603 0 0 0
89 -5.16727 12.78484 21.18977 0 0 0
90 -5.09954 13.58240 21.80513 0 0 0
91 -4.81891 14.55612 21.94372 0 0 0
92 -7.06870 11.38563 16.80104 0 0 0
93 -7.91577 11.58916 16.58655 0 0 0
94 -8.72319 12.09369 16.41634 0 0 0
95 -9.18418 12.50390 17.15166 0 0 0
96 -9.85423 12.46945 16.50682 0 0 0
97 -10.53680 11.67667 16.70257 0 0 0
98 -10.83239 11.30985 17.62580 0 0 0
99 -10.69356 11.86676 18.50373 0 0 0
100 -11.45659 12.07198 19.03640 0 0 0
101 -12.20151 11.39526 19.12948 0 0 0
ITEM: TIMESTEP
2000
ITEM: NUMBER OF ATOMS
101
ITEM: BOX BOUNDS pp pp pp
-1.0000000000000000e+03 1.0000000000000000e+03
-1.0000000000000000e+03 1.0000000000000000e+03
-1.0000000000000000e+03 1.0000000000000000e+03
ITEM: ATOMS id x y z ix iy iz
1 -0.13974 4.11704 6.45656 0 0 0
2 -0.28847 3.20096 6.27670 0 0 0
3 -0.65497 3.39097 7.17764 0 0 0
4 -1.36725 2.89918 7.65763 0 0 0
5 -2.25802 2.46817 7.62381 0 0 0
6 -2.23675 2.73391 8.51112 0 0 0
7 -2.52888 2.05620 9.14203 0 0 0
8 -3.52406 1.87960 9.09951 0 0 0
9 -3.70183 1.02198 9.49449 0 0 0
10 -3.42912 0.30587 10.08749 0 0 0
11 -2.94432 -0.33765 10.64036 0 0 0
12 -1.99605 -0.33177 10.55108 0 0 0
13 -0.98280 -0.51683 10.81742 0 0 0
14 -0.55295 -0.86243 10.02823 0 0 0
15 0.18777 -0.72182 9.37030 0 0 0
16 0.95938 -1.03373 8.73868 0 0 0
17 1.82697 -1.40004 8.52111 0 0 0
18 2.36894 -0.87159 7.76561 0 0 0
19 3.02931 -0.48630 8.34002 0 0 0
20 3.90674 -0.89914 8.29911 0 0 0
21 4.26671 -0.03787 8.07254 0 0 0
22 -3.04219 -1.27815 10.86193 0 0 0
23 -2.71120 -1.98451 11.37764 0 0 0
24 -2.64372 -2.88962 11.20161 0 0 0
25 -2.01329 -3.31968 10.56587 0 0 0
26 -1.91556 -3.57710 9.57091 0 0 0
27 -1.77332 -4.60259 9.60391 0 0 0
28 -1.67061 -5.58864 9.40691 0 0 0
29 -0.92297 -5.97938 8.95884 0 0 0
30 -1.35298 -6.25254 8.15482 0 0 0
31 -1.88668 -5.74297 7.47444 0 0 0
32 -2.73271 0.62123 10.84265 0 0 0
33 -2.26524 1.04609 11.63415 0 0 0
34 -1.34705 1.31540 11.98366 0 0 0
35 -0.46190 1.67948 12.06119 0 0 0
36 -0.90401 2.33528 12.74046 0 0 0
37 -1.45329 3.08260 12.85098 0 0 0
38 -1.95295 3.50323 13.60905 0 0 0
39 -2.89331 3.68945 13.86832 0 0 0
40 -3.77922 4.08906 13.98467 0 0 0
41 -4.45815 4.72007 14.27376 0 0 0
42 -4.46712 4.51210 15.23330 0 0 0
43 -4.10629 4.54847 16.13792 0 0 0
44 -3.24677 4.85612 16.51492 0 0 0
45 -2.30087 4.60585 16.49468 0 0 0
46 -1.36910 4.37668 16.36691 0 0 0
47 -1.80767 3.84597 17.07294 0 0 0
48 -2.11661 3.83047 17.96800 0 0 0
49 -1.43351 3.15728 17.91647 0 0 0
50 -1.41260 2.20694 17.73023 0 0 0
51 -1.16947 2.20003 18.72631 0 0 0
52 -5.33460 4.32571 14.61464 0 0 0
53 -5.79171 3.56786 15.11035 0 0 0
54 -6.40943 3.28299 15.76159 0 0 0
55 -7.27808 2.85304 15.31200 0 0 0
56 -8.07082 3.14112 15.76331 0 0 0
57 -8.34008 2.41614 15.15178 0 0 0
58 -8.90763 2.40875 15.93186 0 0 0
59 -8.97952 2.29864 16.86097 0 0 0
60 -9.83904 2.22536 17.24048 0 0 0
61 -10.53449 2.17068 16.52620 0 0 0
62 -4.63705 5.63263 13.73860 0 0 0
63 -5.51649 6.02472 13.48679 0 0 0
64 -5.67836 6.34027 14.37183 0 0 0
65 -6.10099 6.65149 15.21214 0 0 0
66 -6.30276 7.60343 15.42617 0 0 0
67 -6.09463 8.50587 15.71407 0 0 0
68 -5.69360 9.42368 15.71023 0 0 0
69 -5.61882 10.27759 16.13264 0 0 0
70 -5.13583 11.05992 16.42110 0 0 0
71 -4.90488 11.51527 17.20296 0 0 0
72 -4.15988 12.13129 17.00226 0 0 0
73 -4.16017 12.15185 15.95606 0 0 0
74 -4.90021 12.24950 15.21663 0 0 0
75 -5.29545 12.75961 14.50364 0 0 0
76 -6.30631 12.66287 14.41970 0 0 0
77 -6.81099 13.41897 14.79987 0 0 0
78 -6.98843 14.23825 15.29060 0 0 0
79 -7.10416 15.12301 14.93341 0 0 0
80 -7.63716 15.90202 14.59221 0 0 0
81 -8.13176 16.00002 13.74218 0 0 0
82 -5.26845 10.69964 17.50706 0 0 0
83 -6.15544 11.06096 17.83997 0 0 0
84 -6.09396 12.05198 17.61888 0 0 0
85 -6.95070 12.15501 18.14965 0 0 0
86 -7.46693 12.82381 18.59849 0 0 0
87 -7.82476 13.72571 18.71451 0 0 0
88 -7.77564 14.69508 19.10694 0 0 0
89 -7.34578 15.01184 19.97777 0 0 0
90 -7.14654 15.73137 20.61037 0 0 0
91 -6.79225 15.83633 21.46816 0 0 0
92 -5.39558 12.14858 16.73434 0 0 0
93 -5.99335 12.90521 16.49823 0 0 0
94 -6.65264 13.46506 16.08215 0 0 0
95 -7.47832 12.99869 16.29218 0 0 0
96 -8.11160 12.96594 17.04088 0 0 0
97 -8.91867 13.19505 17.51274 0 0 0
98 -8.97823 12.56560 18.28724 0 0 0
99 -9.54421 12.35716 17.41001 0 0 0
100 -10.08552 12.13709 16.65627 0 0 0
101 -11.05821 12.24065 16.70440 0 0 0
ITEM: TIMESTEP
3000
ITEM: NUMBER OF ATOMS
101
ITEM: BOX BOUNDS pp pp pp
-1.0000000000000000e+03 1.0000000000000000e+03
-1.0000000000000000e+03 1.0000000000000000e+03
-1.0000000000000000e+03 1.0000000000000000e+03
ITEM: ATOMS id x y z ix iy iz
1 0.03430 0.33750 3.42758 0 0 0
2 -0.20976 -0.40489 3.94614 0 0 0
3 -0.47568 0.13085 4.78674 0 0 0
4 -0.83522 0.29801 5.61934 0 0 0
5 -1.64522 0.78515 5.89961 0 0 0
6 -1.89802 1.27337 6.75999 0 0 0
7 -2.41769 0.89356 7.57629 0 0 0
8 -2.33544 0.31346 8.41585 0 0 0
9 -1.84856 0.24639 9.44517 0 0 0
10 -2.34155 -0.01397 10.30044 0 0 0
11 -1.87614 -0.15182 11.14502 0 0 0
12 -1.51448 0.61449 10.60528 0 0 0
13 -0.64567 0.50512 10.22536 0 0 0
14 0.13138 0.31882 9.69511 0 0 0
15 0.80158 0.66555 9.01589 0 0 0
16 1.63882 0.41051 8.59060 0 0 0
17 1.27829 0.48843 7.69831 0 0 0
18 1.77343 0.08656 6.91078 0 0 0
19 2.68887 0.18803 7.24012 0 0 0
20 3.65479 0.22260 7.28485 0 0 0
21 4.34078 0.45201 6.62121 0 0 0
22 -2.00382 -1.01509 11.43479 0 0 0
23 -2.58419 -1.76345 11.65199 0 0 0
24 -3.01560 -2.56740 11.94214 0 0 0
25 -2.34761 -3.15337 11.66378 0 0 0
26 -1.68067 -3.65143 11.21588 0 0 0
27 -1.06141 -3.98040 10.53512 0 0 0
28 -1.90729 -4.50132 10.39381 0 0 0
29 -2.44798 -4.33995 9.54088 0 0 0
30 -3.36461 -3.92158 9.29954 0 0 0
31 -3.50697 -4.84074 9.58968 0 0 0
32 -2.37169 0.72708 11.15837 0 0 0
33 -2.09648 1.44580 11.74584 0 0 0
34 -2.11207 2.25772 12.22504 0 0 0
35 -1.73948 1.57449 12.79072 0 0 0
36 -1.77943 1.64976 13.70960 0 0 0
37 -2.49505 2.05750 14.21661 0 0 0
38 -3.19934 2.61756 13.93210 0 0 0
39 -3.93194 2.96789 13.47589 0 0 0
40 -4.23354 3.89450 13.48368 0 0 0
41 -4.56253 4.78543 13.67442 0 0 0
42 -3.69912 4.69312 14.23847 0 0 0
43 -3.94219 4.24548 15.20676 0 0 0
44 -3.17699 4.19624 15.83542 0 0 0
45 -2.59266 4.03382 16.61779 0 0 0
46 -3.36262 3.46852 16.86503 0 0 0
47 -4.19060 3.57833 17.35102 0 0 0
48 -4.04493 4.05117 18.14118 0 0 0
49 -4.16183 3.73293 19.08961 0 0 0
50 -4.60614 4.18003 19.93009 0 0 0
51 -4.78433 3.70105 20.78910 0 0 0
52 -5.47061 4.95608 14.08246 0 0 0
53 -4.82574 4.56228 14.67318 0 0 0
54 -4.62811 3.59313 14.53039 0 0 0
55 -4.73109 2.63808 14.23996 0 0 0
56 -5.07710 1.78490 14.30308 0 0 0
57 -5.79444 1.06936 14.57495 0 0 0
58 -5.83033 0.60759 13.66718 0 0 0
59 -6.61905 0.07347 13.83270 0 0 0
60 -6.38307 -0.85796 13.95915 0 0 0
61 -7.30575 -0.86526 13.65889 0 0 0
62 -4.71510 5.72214 13.68806 0 0 0
63 -4.08584 6.46767 14.00972 0 0 0
64 -4.39393 7.00125 14.76982 0 0 0
65 -4.39780 7.90993 14.98755 0 0 0
66 -4.43130 8.78332 15.40977 0 0 0
67 -4.22783 9.69850 15.07912 0 0 0
68 -4.11643 10.65640 15.31644 0 0 0
69 -4.00478 11.71082 15.27857 0 0 0
70 -4.24884 12.64138 15.56826 0 0 0
71 -4.47069 12.94972 16.52992 0 0 0
72 -5.18039 13.12974 15.78133 0 0 0
73 -4.97484 13.39453 14.84905 0 0 0
74 -6.04818 13.41912 14.53646 0 0 0
75 -6.95827 13.50071 14.83438 0 0 0
76 -7.86719 13.37081 14.43968 0 0 0
77 -8.49524 12.66432 14.18206 0 0 0
78 -8.85082 13.16916 13.30317 0 0 0
79 -8.37186 12.44781 12.78707 0 0 0
80 -7.50485 11.84013 12.64349 0 0 0
81 -6.73472 11.87440 12.07307 0 0 0
82 -3.98679 12.84724 17.39545 0 0 0
83 -4.51968 12.50036 18.16573 0 0 0
84 -4.99668 12.32517 19.00272 0 0 0
85 -5.20007 12.26919 19.91084 0 0 0
86 -6.00949 11.96766 20.35134 0 0 0
87 -6.37425 12.06974 21.22232 0 0 0
88 -6.93743 12.09208 21.93077 0 0 0
89 -7.53126 12.42460 22.81072 0 0 0
90 -8.25238 13.14446 22.52227 0 0 0
91 -9.12184 13.59670 22.78682 0 0 0
92 -5.17856 13.57001 16.94027 0 0 0
93 -6.02921 13.57516 17.51710 0 0 0
94 -6.92220 13.44142 17.86754 0 0 0
95 -6.96832 14.30707 18.13893 0 0 0
96 -7.87964 14.51091 17.93917 0 0 0
97 -8.42866 13.71580 17.79310 0 0 0
98 -7.88222 13.04053 18.30696 0 0 0
99 -8.35958 12.12083 18.48472 0 0 0
100 -8.50323 12.02683 19.38532 0 0 0
101 -8.69901 11.21358 18.86521 0 0 0
ITEM: TIMESTEP
4000
ITEM: NUMBER OF ATOMS
101
ITEM: BOX BOUNDS pp pp pp
-1.0000000000000000e+03 1.0000000000000000e+03
-1.0000000000000000e+03 1.0000000000000000e+03
-1.0000000000000000e+03 1.0000000000000000e+03
ITEM: ATOMS id x y z ix iy iz
1 -2.26069 1.41546 7.48557 0 0 0
2 -2.96617 0.94837 7.04301 0 0 0
3 -2.41183 0.18472 6.92717 0 0 0
4 -1.68093 -0.20145 7.30041 0 0 0
5 -1.92452 0.05034 8.25485 0 0 0
6 -1.37246 0.64932 8.68191 0 0 0
7 -0.77675 1.42237 8.94301 0 0 0
8 -0.27456 1.42192 9.77515 0 0 0
9 -0.51013 1.48026 10.76845 0 0 0
10 -1.28122 0.83189 11.06813 0 0 0
11 -1.37525 0.07246 11.63703 0 0 0
12 -0.60522 -0.50103 11.99688 0 0 0
13 -0.06488 -1.23549 11.74147 0 0 0
14 0.55427 -0.83063 11.12521 0 0 0
15 0.98383 -0.58763 10.26679 0 0 0
16 1.19786 -1.29938 9.58734 0 0 0
17 2.07533 -1.28562 9.11834 0 0 0
18 2.28612 -0.33480 9.10936 0 0 0
19 2.33744 0.70263 9.13847 0 0 0
20 1.67851 1.31694 9.52489 0 0 0
21 1.33543 1.81059 10.29532 0 0 0
22 -1.52809 -0.89534 11.85310 0 0 0
23 -1.74971 -1.09498 10.93950 0 0 0
24 -2.58158 -1.62913 10.69108 0 0 0
25 -1.77669 -2.09824 10.96684 0 0 0
26 -1.25518 -2.93012 11.23306 0 0 0
27 -1.35276 -3.66230 10.58682 0 0 0
28 -1.94633 -4.39431 10.78324 0 0 0
29 -2.36885 -4.30170 11.61901 0 0 0
30 -3.08811 -4.28932 12.38002 0 0 0
31 -3.96030 -4.47494 12.67172 0 0 0
32 -2.16363 0.35959 12.19682 0 0 0
33 -2.31174 1.21411 12.69016 0 0 0
34 -1.87786 2.01637 12.79216 0 0 0
35 -1.89464 2.99217 12.81759 0 0 0
36 -2.41056 3.79851 12.55492 0 0 0
37 -2.99364 4.29134 11.90850 0 0 0
38 -3.09449 5.29703 11.90325 0 0 0
39 -3.44900 6.03779 12.42609 0 0 0
40 -4.17644 5.95550 13.10803 0 0 0
41 -4.41435 5.56030 13.93289 0 0 0
42 -3.80915 5.87013 14.56561 0 0 0
43 -3.78597 5.13926 15.21712 0 0 0
44 -3.99494 4.35829 15.83591 0 0 0
45 -3.63574 3.64341 16.35579 0 0 0
46 -4.28544 3.11479 16.87269 0 0 0
47 -4.79084 2.24932 17.15427 0 0 0
48 -4.50438 1.47210 17.62484 0 0 0
49 -5.52012 1.22506 17.63761 0 0 0
50 -6.47953 0.93757 17.77880 0 0 0
51 -6.63877 1.52103 18.59573 0 0 0
52 -4.79937 4.75132 13.66236 0 0 0
53 -4.97031 3.84599 13.90024 0 0 0
54 -4.68878 3.19051 14.57003 0 0 0
55 -4.55228 2.26478 14.69921 0 0 0
56 -4.20478 1.36238 14.73773 0 0 0
57 -4.58563 0.45641 14.37617 0 0 0
58 -4.40955 -0.40163 13.92747 0 0 0
59 -3.51589 -0.55991 13.65340 0 0 0
60 -2.60463 -0.28903 13.97924 0 0 0
61 -2.04867 -1.15932 14.09280 0 0 0
62 -4.78550 6.44241 13.99496 0 0 0
63 -4.99087 7.38629 14.30349 0 0 0
64 -4.89400 8.39759 14.05359 0 0 0
65 -5.08750 9.36335 14.29337 0 0 0
66 -5.85493 9.67637 14.82550 0 0 0
67 -6.23442 10.59237 15.08354 0 0 0
68 -5.36219 10.99857 15.36923 0 0 0
69 -4.96735 11.37839 16.17602 0 0 0
70 -5.51075 12.18991 16.27065 0 0 0
71 -5.68966 13.01650 16.86774 0 0 0
72 -5.62924 13.55861 16.04630 0 0 0
73 -5.02889 13.58075 15.31177 0 0 0
74 -5.19436 13.24658 14.45101 0 0 0
75 -5.70757 13.35627 13.58405 0 0 0
76 -5.54591 13.70291 12.68867 0 0 0
77 -6.33458 13.34303 12.20179 0 0 0
78 -7.22603 13.70790 12.00017 0 0 0
79 -8.19757 13.59127 11.73584 0 0 0
80 -8.69610 13.09265 12.41252 0 0 0
81 -8.70265 12.27088 13.18430 0 0 0
82 -5.10772 13.79471 17.14920 0 0 0
83 -5.20833 14.29628 17.96079 0 0 0
84 -6.01557 13.88410 18.52655 0 0 0
85 -5.37470 13.80991 19.25815 0 0 0
86 -4.72941 13.82632 20.01254 0 0 0
87 -4.31494 12.99594 20.37878 0 0 0
88 -4.88904 12.75749 21.07477 0 0 0
89 -4.37958 13.09282 21.83095 0 0 0
90 -3.98073 12.99343 22.64473 0 0 0
91 -4.01276 12.88700 23.60236 0 0 0
92 -6.30734 13.19089 17.70206 0 0 0
93 -7.19036 13.32506 18.09632 0 0 0
94 -7.09121 14.05126 18.73004 0 0 0
95 -7.98768 13.63489 18.98427 0 0 0
96 -8.19233 12.96008 19.71538 0 0 0
97 -7.68863 12.50510 20.42912 0 0 0
98 -6.71016 12.52115 20.67822 0 0 0
99 -5.88785 12.58399 20.19917 0 0 0
100 -5.27264 12.47431 19.42391 0 0 0
101 -5.38039 12.95562 18.55869 0 0 0
ITEM: TIMESTEP
5000
ITEM: NUMBER OF ATOMS
101
ITEM: BOX BOUNDS pp pp pp
-1.0000000000000000e+03 1.0000000000000000e+03
-1.0000000000000000e+03 1.0000000000000000e+03
-1.0000000000000000e+03 1.0000000000000000e+03
ITEM: ATOMS id x y z ix iy iz
1 -0.36148 2.71319 8.91132 0 0 0
2 -0.17260 1.97881 9.46436 0 0 0
3 -0.10278 1.29082 8.70843 0 0 0
4 0.05561 0.45541 9.22284 0 0 0
5 0.46382 -0.14907 9.80616 0 0 0
6 0.41126 -1.08519 9.89164 0 0 0
7 1.03491 -1.53724 10.47086 0 0 0
8 1.47192 -0.77749 11.09968 0 0 0
9 0.94503 -0.94758 11.88781 0 0 0
10 0.70777 -0.06527 11.60711 0 0 0
11 -0.24018 0.16252 11.37262 0 0 0
12 -0.40442 0.96465 11.87056 0 0 0
13 -0.08090 1.44237 12.71412 0 0 0
14 0.67313 2.12636 12.68267 0 0 0
15 1.24714 1.40644 12.37006 0 0 0
16 2.02323 1.06980 11.86519 0 0 0
17 2.75111 0.78451 11.23771 0 0 0
18 2.58148 0.94236 10.29656 0 0 0
19 3.51054 0.97824 9.93711 0 0 0
20 4.05807 1.63849 9.30181 0 0 0
21 4.89865 1.64216 8.79405 0 0 0
22 -1.02616 -0.30933 10.96700 0 0 0
23 -1.70655 -0.99937 11.18530 0 0 0
24 -1.90173 -1.81671 11.85152 0 0 0
25 -2.89920 -1.90104 11.97754 0 0 0
26 -3.56921 -2.07136 11.23607 0 0 0
27 -4.13078 -2.81956 10.84435 0 0 0
28 -3.85183 -3.68062 11.15126 0 0 0
29 -3.83490 -4.04998 12.10634 0 0 0
30 -3.31835 -3.28583 12.42278 0 0 0
31 -3.47222 -3.91003 13.14740 0 0 0
32 0.17686 0.96558 10.76641 0 0 0
33 -0.42463 1.78081 10.53396 0 0 0
34 -0.95566 1.89364 11.34371 0 0 0
35 -1.58187 2.37202 10.78804 0 0 0
36 -1.23374 3.18893 11.28766 0 0 0
37 -1.18943 4.07862 11.82556 0 0 0
38 -1.10033 4.77268 12.53842 0 0 0
39 -1.24948 5.36312 13.33308 0 0 0
40 -2.15282 5.42421 13.72406 0 0 0
41 -2.47335 5.52383 14.66367 0 0 0
42 -2.89124 5.93686 15.41419 0 0 0
43 -3.42874 6.70362 15.04352 0 0 0
44 -4.20647 7.16347 15.46394 0 0 0
45 -4.39460 6.23288 15.53640 0 0 0
46 -4.70431 5.86669 16.32806 0 0 0
47 -5.57045 5.90773 16.87473 0 0 0
48 -6.20010 5.26862 17.17191 0 0 0
49 -7.00078 5.10000 16.59634 0 0 0
50 -7.11044 4.29948 16.11626 0 0 0
51 -7.32005 3.35982 15.78303 0 0 0
52 -2.73175 4.60831 14.67256 0 0 0
53 -2.88900 3.68496 14.29346 0 0 0
54 -3.25887 3.08067 13.58909 0 0 0
55 -3.75841 2.22303 13.81433 0 0 0
56 -4.17753 1.29658 13.85089 0 0 0
57 -3.48233 0.72867 14.22297 0 0 0
58 -2.55728 0.82341 14.59499 0 0 0
59 -1.61909 0.90736 14.57085 0 0 0
60 -0.87850 0.53899 15.19489 0 0 0
61 -0.91509 -0.20371 14.64919 0 0 0
62 -2.36500 6.40744 14.28403 0 0 0
63 -2.50978 7.27569 13.66477 0 0 0
64 -3.39280 7.77757 13.53157 0 0 0
65 -3.89963 8.61390 13.34456 0 0 0
66 -4.31362 9.36055 12.99014 0 0 0
67 -4.66727 10.33630 13.04765 0 0 0
68 -5.38582 10.58783 13.60494 0 0 0
69 -5.40821 11.25689 14.32790 0 0 0
70 -4.96458 11.76623 15.03471 0 0 0
71 -5.41310 12.43133 15.47641 0 0 0
72 -5.83411 13.33170 15.67793 0 0 0
73 -6.03392 13.75183 14.89109 0 0 0
74 -5.88891 14.67031 14.76021 0 0 0
75 -6.76119 15.04495 14.57036 0 0 0
76 -7.13246 14.81548 13.75139 0 0 0
77 -7.59813 15.00119 12.89179 0 0 0
78 -8.48892 15.14503 12.90443 0 0 0
79 -8.20690 15.76619 13.55188 0 0 0
80 -8.66097 16.45332 14.07727 0 0 0
81 -8.90217 16.14887 14.99386 0 0 0
82 -4.94078 12.79898 16.19221 0 0 0
83 -5.12062 13.19709 17.06257 0 0 0
84 -5.48211 13.51459 17.90784 0 0 0
85 -4.83052 14.03134 18.33081 0 0 0
86 -4.62081 14.15902 19.31654 0 0 0
87 -5.33639 14.28640 19.96437 0 0 0
88 -5.13337 15.03078 20.48930 0 0 0
89 -5.52347 15.13720 21.39163 0 0 0
90 -5.30442 14.47335 22.14815 0 0 0
91 -5.82969 13.93193 22.92111 0 0 0
92 -5.77651 11.79953 16.11694 0 0 0
93 -6.04216 11.65341 17.00073 0 0 0
94 -6.13741 11.47597 17.89305 0 0 0
95 -7.03188 11.21030 18.07235 0 0 0
96 -6.70610 10.38310 18.35644 0 0 0
97 -6.57975 10.67549 19.32709 0 0 0
98 -5.74253 11.21629 19.45534 0 0 0
99 -5.32380 11.92077 20.14028 0 0 0
100 -5.00975 12.65714 20.66112 0 0 0
101 -4.80137 13.27339 21.42653 0 0 0
ITEM: TIMESTEP
6000
ITEM: NUMBER OF ATOMS
101
ITEM: BOX BOUNDS pp pp pp
-1.0000000000000000e+03 1.0000000000000000e+03
-1.0000000000000000e+03 1.0000000000000000e+03
-1.0000000000000000e+03 1.0000000000000000e+03
ITEM: ATOMS id x y z ix iy iz
1 -0.21558 -0.51778 8.64027 0 0 0
2 0.14879 -1.47079 8.35449 0 0 0
3 0.68313 -2.24706 8.76463 0 0 0
4 0.97710 -3.20099 8.89703 0 0 0
5 1.78882 -3.20214 9.49106 0 0 0
6 2.72380 -2.78910 9.49356 0 0 0
7 2.03384 -2.09908 9.61532 0 0 0
8 1.65102 -1.50690 10.32095 0 0 0
9 0.98556 -0.92731 10.87016 0 0 0
10 0.71695 -0.42269 11.65489 0 0 0
11 0.91601 0.43183 12.24442 0 0 0
12 1.79817 0.42511 11.89684 0 0 0
13 2.64462 0.71391 11.40349 0 0 0
14 3.52694 0.61410 10.85712 0 0 0
15 3.87198 1.47373 10.88076 0 0 0
16 3.73796 2.11107 10.12942 0 0 0
17 4.22744 1.53013 9.48465 0 0 0
18 4.53327 1.73208 8.61158 0 0 0
19 5.29871 2.26392 9.01404 0 0 0
20 6.22909 2.37522 9.38885 0 0 0
21 6.20340 3.04387 8.68112 0 0 0
22 0.88311 -0.24865 12.96309 0 0 0
23 -0.05122 -0.46315 13.04472 0 0 0
24 -0.93261 -0.78262 13.29236 0 0 0
25 -1.63135 -1.44779 13.48269 0 0 0
26 -2.15046 -1.91172 12.70027 0 0 0
27 -2.89345 -1.64175 13.27035 0 0 0
28 -3.54355 -1.52004 12.59939 0 0 0
29 -4.26975 -0.88165 12.38766 0 0 0
30 -4.25968 0.07024 12.30011 0 0 0
31 -4.66699 0.92569 12.47057 0 0 0
32 1.21752 1.42581 12.16978 0 0 0
33 1.37951 2.36596 12.52312 0 0 0
34 0.79945 3.22016 12.55729 0 0 0
35 0.20824 2.66043 13.15193 0 0 0
36 -0.60322 3.19867 13.39971 0 0 0
37 -1.45550 2.88990 13.22983 0 0 0
38 -2.29158 3.21158 13.49974 0 0 0
39 -2.30055 3.89020 14.17635 0 0 0
40 -2.52668 4.80683 14.42164 0 0 0
41 -2.99373 5.54162 14.85379 0 0 0
42 -3.16274 5.63652 15.81490 0 0 0
43 -3.74450 5.68913 16.67783 0 0 0
44 -4.72215 5.33173 16.83109 0 0 0
45 -5.52816 4.84296 16.50960 0 0 0
46 -6.44911 4.94214 16.28535 0 0 0
47 -7.13180 4.71592 15.63680 0 0 0
48 -7.38854 5.67751 15.38819 0 0 0
49 -7.28591 6.62198 15.31310 0 0 0
50 -7.03914 7.31917 14.73906 0 0 0
51 -6.24437 7.56046 15.18415 0 0 0
52 -3.71361 5.36263 14.23834 0 0 0
53 -3.60135 4.46167 13.92616 0 0 0
54 -3.51551 3.60432 13.49737 0 0 0
55 -3.88413 2.79876 13.06081 0 0 0
56 -3.98735 1.81896 13.19959 0 0 0
57 -3.35814 1.27644 13.49372 0 0 0
58 -2.34051 1.09986 13.38526 0 0 0
59 -1.72545 0.41519 13.50077 0 0 0
60 -1.29323 0.16694 14.46202 0 0 0
61 -1.42973 -0.63439 14.98754 0 0 0
62 -3.40836 6.34192 14.68863 0 0 0
63 -3.64092 7.05130 13.99768 0 0 0
64 -3.51133 7.94699 14.22526 0 0 0
65 -3.36367 8.70173 14.84848 0 0 0
66 -3.50409 9.71256 14.73660 0 0 0
67 -3.60268 10.62795 14.97655 0 0 0
68 -2.79783 11.12906 15.08156 0 0 0
69 -3.09160 12.07212 15.42805 0 0 0
70 -3.86570 12.37039 16.08849 0 0 0
71 -4.75066 11.95623 16.19371 0 0 0
72 -5.47346 12.30149 15.59281 0 0 0
73 -5.13260 13.24488 15.54813 0 0 0
74 -4.93886 14.18626 15.30218 0 0 0
75 -5.75582 14.69839 14.85241 0 0 0
76 -6.39160 15.30261 14.46866 0 0 0
77 -7.13609 15.59681 14.99704 0 0 0
78 -7.88714 15.99624 15.36106 0 0 0
79 -8.62848 15.58306 14.92672 0 0 0
80 -9.30135 15.84908 14.31914 0 0 0
81 -9.65583 16.70141 14.55328 0 0 0
82 -4.65630 12.42944 17.02445 0 0 0
83 -4.38222 13.36744 17.04018 0 0 0
84 -4.06421 13.45392 17.93730 0 0 0
85 -4.46445 13.94466 18.65715 0 0 0
86 -4.93043 14.03868 19.52806 0 0 0
87 -5.67944 13.75776 20.02395 0 0 0
88 -5.61837 14.05400 20.95208 0 0 0
89 -4.92314 13.35957 20.90686 0 0 0
90 -5.02819 12.51996 21.54319 0 0 0
91 -5.16416 11.56124 21.88183 0 0 0
92 -5.05613 11.09870 16.30091 0 0 0
93 -4.69227 10.26512 16.15426 0 0 0
94 -5.01856 10.32251 17.10845 0 0 0
95 -4.76221 10.36732 18.05105 0 0 0
96 -4.47214 10.79892 18.85049 0 0 0
97 -3.72656 11.23723 19.22658 0 0 0
98 -3.24510 12.10302 19.25279 0 0 0
99 -3.04455 12.17547 20.25529 0 0 0
100 -3.17967 11.99967 21.14562 0 0 0
101 -4.07061 11.96888 21.60735 0 0 0
ITEM: TIMESTEP
7000
ITEM: NUMBER OF ATOMS
101
ITEM: BOX BOUNDS pp pp pp
-1.0000000000000000e+03 1.0000000000000000e+03
-1.0000000000000000e+03 1.0000000000000000e+03
-1.0000000000000000e+03 1.0000000000000000e+03
ITEM: ATOMS id x y z ix iy iz
1 4.88841 -2.23669 8.35044 0 0 0
2 3.87767 -2.33468 8.32523 0 0 0
3 3.40513 -1.62418 8.86988 0 0 0
4 2.53588 -1.15369 8.82803 0 0 0
5 1.59668 -1.12543 9.12624 0 0 0
6 0.89842 -1.44374 9.69484 0 0 0
7 0.34176 -0.80872 10.18325 0 0 0
8 0.85600 -0.61764 11.03820 0 0 0
9 1.05376 -0.06161 11.84873 0 0 0
10 0.93843 0.85251 11.58663 0 0 0
11 1.23858 1.52168 10.91417 0 0 0
12 1.94562 1.65878 10.33375 0 0 0
13 2.89578 1.58992 10.57045 0 0 0
14 3.56319 0.92559 10.89613 0 0 0
15 4.52452 1.20285 10.64689 0 0 0
16 5.48321 0.87812 10.28526 0 0 0
17 6.40833 0.60522 10.28525 0 0 0
18 6.58404 0.58612 11.24593 0 0 0
19 6.90786 0.59224 12.15169 0 0 0
20 6.91272 -0.34499 12.19743 0 0 0
21 7.23747 -0.99399 11.54899 0 0 0
22 0.70127 1.47932 10.19795 0 0 0
23 -0.27306 1.24916 10.18664 0 0 0
24 -1.24263 1.30679 10.31986 0 0 0
25 -1.78460 0.92053 11.16856 0 0 0
26 -2.18757 0.83154 12.01350 0 0 0
27 -2.36397 0.19302 12.65621 0 0 0
28 -2.35129 -0.11219 13.61762 0 0 0
29 -3.01398 -0.55449 14.14917 0 0 0
30 -3.53156 -1.42411 14.37593 0 0 0
31 -3.30382 -2.11878 15.05980 0 0 0
32 0.45135 2.01574 11.08541 0 0 0
33 0.83095 2.87967 10.95793 0 0 0
34 0.82591 3.75562 11.49146 0 0 0
35 1.02975 4.75190 11.46012 0 0 0
36 0.97510 5.56250 11.98290 0 0 0
37 0.85653 5.04645 12.82168 0 0 0
38 0.09547 5.33113 13.37192 0 0 0
39 -0.52756 6.04121 13.62908 0 0 0
40 -1.21096 5.92988 14.36245 0 0 0
41 -2.21768 6.03125 14.34208 0 0 0
42 -2.89456 5.69886 15.05852 0 0 0
43 -3.61942 5.23301 15.52998 0 0 0
44 -3.66719 4.31631 15.74934 0 0 0
45 -4.47626 4.31277 16.36971 0 0 0
46 -5.38189 4.26552 16.56772 0 0 0
47 -6.15125 4.06872 17.19239 0 0 0
48 -6.66810 3.38179 16.85643 0 0 0
49 -7.14072 4.28249 16.70460 0 0 0
50 -7.85130 4.50609 16.09740 0 0 0
51 -8.05572 5.48065 15.95731 0 0 0
52 -2.04966 5.44187 13.51989 0 0 0
53 -1.68089 4.48794 13.17211 0 0 0
54 -1.11921 4.27531 12.33905 0 0 0
55 -1.72117 3.55466 12.13504 0 0 0
56 -2.36986 2.97664 12.64932 0 0 0
57 -2.70593 3.27385 13.49663 0 0 0
58 -3.24246 2.86312 14.25611 0 0 0
59 -3.72086 2.00656 14.27593 0 0 0
60 -3.62747 1.72481 13.34774 0 0 0
61 -2.81327 1.27358 13.69123 0 0 0
62 -2.29067 6.88134 14.84612 0 0 0
63 -2.55371 7.78921 14.42447 0 0 0
64 -2.65268 8.62367 13.95230 0 0 0
65 -2.87829 9.55623 14.52805 0 0 0
66 -3.56112 8.92973 14.79958 0 0 0
67 -4.31822 9.48487 15.16462 0 0 0
68 -4.34958 9.69294 16.17456 0 0 0
69 -4.70655 10.43335 16.74538 0 0 0
70 -4.85607 11.45924 16.97740 0 0 0
71 -5.20448 12.15333 17.54684 0 0 0
72 -4.96656 12.99024 16.99371 0 0 0
73 -5.32382 13.89473 17.24375 0 0 0
74 -5.87891 14.64244 16.90000 0 0 0
75 -6.80142 14.78202 16.76221 0 0 0
76 -7.63451 14.53178 17.27278 0 0 0
77 -8.47279 14.21308 16.84944 0 0 0
78 -9.04286 14.90890 17.16772 0 0 0
79 -9.79983 14.55328 17.62975 0 0 0
80 -10.52492 13.81557 17.45731 0 0 0
81 -10.56930 13.11099 18.05656 0 0 0
82 -5.34500 12.83960 18.20551 0 0 0
83 -5.32560 13.67344 18.65960 0 0 0
84 -5.27339 14.44260 19.25102 0 0 0
85 -4.34777 14.55977 19.49765 0 0 0
86 -4.63874 14.42744 20.38390 0 0 0
87 -5.19288 13.97088 20.98723 0 0 0
88 -5.22673 13.00020 20.85452 0 0 0
89 -5.14300 12.11945 21.40026 0 0 0
90 -5.27615 11.38334 22.00625 0 0 0
91 -5.92530 10.86476 21.43520 0 0 0