#atom_style bond #no stiffness
atom_style angle #with stiffness

boundary        p p p
###
# Pair interactions require lists of neighbours to be calculated
###

#neighbor 0.3 bin
neighbor 4 bin

neigh_modify every 1 delay 1 check yes
atom_modify sort 0 0
### Generate RESTART file, SPECIAL format, not a .txt file ###
### Useful if simulation crashes ###

restart 1000000 linear/restarts2/$f.restart
restart 1000000 linear/restarts2/bb1000nuc0bl0bn0d30tot1000.restart
#############################



### READ "start" data file ###

read_data linear/$f.dat
read_data linear/bb1000nuc0bl0bn0d30tot1000.dat
Reading data file ...
  orthogonal box = (-1000 -1000 -1000) to (1000 1000 1000)
  1 by 1 by 1 MPI processor grid
  reading atoms ...
  1000 atoms
  scanning bonds ...
  1 = max bonds/atom
  scanning angles ...
  1 = max angles/atom
  reading bonds ...
  999 bonds
  reading angles ...
  998 angles
Finding 1-2 1-3 1-4 neighbors ...
  special bond factors lj:    0        0        0       
  special bond factors coul:  0        0        0       
     2 = max # of 1-2 neighbors
     2 = max # of 1-3 neighbors
     4 = max # of 1-4 neighbors
     6 = max # of special neighbors
  special bonds CPU = 0.001 seconds
  read_data CPU = 0.077 seconds

######################

### READ "REstart" data file ###

######################



###
# Define groups (atom type 1 is group 'all')
###
group all type 1
1000 atoms in group all


###
# Dump configs - "simple dumpings"
###

###
# Dump configs + box coords
###

dump   1   all   custom   1000  linear/trjs2/$f.lammpstrj  id  x y z  ix iy iz
dump   1   all   custom   1000  linear/trjs2/bb1000nuc0bl0bn0d30tot1000.lammpstrj  id  x y z  ix iy iz
dump_modify   1   format line "%d %.5f %.5f %.5f %d %d %d"

########################################################################


###################################################################
# Stiffness term
#
# E = K * (1+cos(theta)), K>0
#
angle_style   cosine
#change this coefficient to change stiffness (e.g. 1,5,10)
angle_coeff   1 1.0
###################################################################

###################################################################
# Pair interaction between non-bonded atoms
#
#  Lennard-Jones 12-6 potential with cutoff:
#  potential E=4epsilon[ (sigma/r)^12 - (sigma/r)^6]  for r<r_cut
#
#  1.12246 = 2^(1/6) is the minimum of the potential


pair_style      lj/cut 1.12246152962189
#pair_style      lj/cut 3

#
#  pair_modify shift yes adds a constant to the potential such

#  that E(r_cut)=0. Forces remains unchanged.
#

pair_modify     shift yes

#
#  pair_coeff for lj/cut, specify 4:
#    * atom type interacting with
#    * atom type
#    * epsilon (energy units)
#    * sigma (distance units)
#

pair_coeff      1 1 1.0 1.0
###################################################################

###################################################################
# Pair interaction between non-bonded atoms
#
#  soft potential, for PUSHING apart overlapping atoms
#  potential E=A*(1 + cos(pi*r/r_c))
#
#  1.12246 = 2^(1/6) is the cut-off r_c

#pair_style     soft 1.12246152962189

#
#  pair_coeff for soft, specify 3:
#    * atom type interacting with
#    * atom type
#    * A
#
#

#pair_coeff      1 1 100.0
###################################################################

###################################################################
# Pair interaction between bonded atoms
#
# Fene potential + Lennard Jones 12-6:

#
#  E= - 0.5 K R0^2 ln[ 1- (r/R0)^2]
#     + 4epsilon[ (sigma/r)^12 - (sigma/r)^6] + epsilon
#

bond_style   fene


#
# For style fene, specify:
#   * bond type
#   * K (energy/distance^2)
#   * R0 (distance)
#   * epsilon (energy)  (LJ component)
#   * sigma (distance)  (LJ component)
#


special_bonds fene #<=== I M P O R T A N T (new command)
Finding 1-2 1-3 1-4 neighbors ...
  special bond factors lj:    0        1        1       
  special bond factors coul:  0        1        1       
     2 = max # of 1-2 neighbors
     6 = max # of special neighbors
  special bonds CPU = 0.000 seconds

bond_coeff   1   30   2   1.0   1.0


###################################################

###################################################################
# Pair interaction between bonded atoms
#
# Harmonic potential:
#
#  E= K * (R-R0)^2
#

#bond_style   harmonic

#
# For style harmonic, specify:
#   * bond type
#   * K (energy/distance^2)
#   * R0 (distance)
#

#bond_coeff   1   60.0   1.0
#bond_coeff   2   harmonic 0.1   1.0

###################################################
compute 1 all gyration
variable rog equal c_1
#compute 2 all coord/atom cutoff 1.1

#dump 2 all custom 10000 contact_number.dump id c_2


###
# Set up fixes
###
thermo_style   custom   step  temp enthalpy c_1
fix 1 all nve   ###NVE ensemble

fix 2 all   langevin   1.0 1.0 1.0  778655   ###Langevin integrator Tstart Tstop 1/friction rndseed


##### Sample thermodynamic info  (temperature, energy, pressure, etc.) #####
thermo 1000









############################################################################

###
# set timestep of integrator

timestep 0.01

###
# run integration for a number of steps
###
#run 0
#variable r equal c_1
#if "$r < 63.1" then "quit 1"

# lj potential minimum, cause molecule to explore
run 100000
Generated 0 of 0 mixed pair_coeff terms from geometric mixing rule
Last active /omp style is angle_style cosine/omp
Neighbor list info ...
  update: every = 1 steps, delay = 1 steps, check = yes
  max neighbors/atom: 2000, page size: 100000
  master list distance cutoff = 5.1224615
  ghost atom cutoff = 5.1224615
  binsize = 2.5612308, bins = 781 781 781
  1 neighbor lists, perpetual/occasional/extra = 1 0 0
  (1) pair lj/cut/omp, perpetual
      attributes: half, newton on, omp
      pair build: half/bin/newton/omp
      stencil: half/bin/3d
      bin: standard
WARNING: Communication cutoff 5.12246152962189 is shorter than a bond length based estimate of 5.455. This may lead to errors. (src/comm.cpp:723)
Per MPI rank memory allocation (min/avg/max) = 1860 | 1860 | 1860 Mbytes
   Step          Temp         Enthalpy         c_1      
         0   0              13.413297      250.00023    
      1000   1.0471107      19.030854      249.9777     
      2000   1.0360137      19.165894      249.67722    
      3000   1.0256191      18.790839      249.49932    
      4000   1.0270455      19.873672      249.40232    
      5000   1.0240277      19.26357       249.58477    
      6000   0.9848609      18.960723      249.44205    
      7000   0.98796204     19.232426      249.39805    
      8000   0.99445624     18.790906      249.19657    
      9000   1.0011214      18.907015      249.1068     
     10000   0.96913017     18.298419      248.98771    
     11000   1.0211009      19.090575      248.82843    
     12000   0.97171059     18.778711      248.56301    
     13000   0.99029843     19.150984      248.34151    
     14000   0.99050672     18.872871      247.88249    
     15000   0.96174418     18.658689      247.7794     
     16000   0.98662402     19.294032      247.62245    
     17000   0.99157797     18.972451      247.22144    
     18000   1.0040636      18.863372      247.04629    
     19000   1.0074176      18.820304      246.94873    
     20000   1.0066986      18.747092      246.6937     
     21000   0.99714461     19.165325      246.29495    
     22000   0.96770934     19.532251      246.1035     
     23000   1.0011691      18.534136      245.73938    
     24000   0.99204879     18.863556      245.5895     
     25000   1.0042096      19.039518      245.49366    
     26000   1.0014182      19.369041      245.534      
     27000   0.96250252     19.284853      245.54192    
     28000   1.0288519      18.673853      245.37297    
     29000   1.0076344      19.01126       245.16711    
     30000   0.96088241     19.172189      244.80605    
     31000   0.9860962      18.788855      244.58461    
     32000   0.96707218     19.217018      244.60382    
     33000   1.01066        19.133918      244.35236    
     34000   0.97145606     18.968791      244.11475    
     35000   0.94420574     19.411017      243.77673    
     36000   1.0523683      19.440119      243.73552    
     37000   0.99037913     18.960812      243.54508    
     38000   1.0115488      19.606379      243.54524    
     39000   0.97399943     18.985268      243.30149    
     40000   0.94255488     18.912425      243.01674    
     41000   0.94460344     18.561397      242.80728    
     42000   0.96274262     18.849454      242.67716    
     43000   0.97987286     19.000573      242.70392    
     44000   1.0083009      19.232492      242.53308    
     45000   0.96839417     19.341689      242.53875    
     46000   0.97975842     18.848433      242.42049    
     47000   0.99141364     19.319383      242.36883    
     48000   1.0161901      18.58706       242.27347    
     49000   1.0458451      19.347231      242.06152    
     50000   1.0136764      19.496514      242.0373     
     51000   0.956246       18.805317      242.018      
     52000   1.0181666      19.3558        241.77343    
     53000   0.98645476     19.57201       241.65156    
     54000   0.99651626     18.840435      241.36653    
     55000   1.0544746      19.317715      241.22843    
     56000   0.99425611     19.203241      241.21092    
     57000   1.0300748      19.319461      241.13752    
     58000   0.98509562     19.329493      240.89131    
     59000   1.0201249      19.387763      240.62831    
     60000   0.98835607     19.992968      240.43437    
     61000   1.0524502      19.564973      240.22443    
     62000   0.96494846     19.198361      240.06792    
     63000   0.99419717     19.151142      239.71369    
     64000   0.99461901     19.035366      239.67853    
     65000   1.0259576      19.421732      239.43489    
     66000   0.9837511      19.069403      239.37453    
     67000   1.0072694      19.772063      239.31086    
     68000   0.99192758     19.455456      239.40228    
     69000   1.0154549      19.532717      239.30472    
     70000   1.0373621      19.413101      239.30978    
     71000   1.0075511      19.650693      239.23536    
     72000   1.0030202      18.943655      239.04582    
     73000   0.94173912     19.210377      238.80113    
     74000   0.96936295     19.419745      238.7346     
     75000   0.96536425     19.109804      238.70287    
     76000   0.9737194      19.126897      238.46669    
     77000   0.99833294     19.347276      238.22133    
     78000   0.95461269     19.303814      237.95674    
     79000   1.0022913      19.450453      237.98548    
     80000   1.0073508      19.203883      237.65658    
     81000   1.0232912      19.037754      237.55971    
     82000   1.0030594      19.469144      237.61515    
     83000   0.95629822     19.176753      237.58677    
     84000   0.99370449     19.303507      237.41847    
     85000   0.97979927     19.795336      237.28056    
     86000   1.0389403      19.409416      237.10551    
     87000   1.0445385      19.952606      237.10162    
     88000   1.0653459      19.502773      236.74711    
     89000   0.99599157     19.631567      236.52005    
     90000   0.97183242     19.528634      236.41142    
     91000   1.032489       19.36429       236.1158     
     92000   0.98132333     19.373389      236.13376    
     93000   0.97837264     19.166859      235.7952     
     94000   0.94469649     19.660487      235.59943    
     95000   1.0375894      19.482815      235.647      
     96000   1.0192035      19.033804      235.55435    
     97000   1.005717       19.457311      235.34588    
     98000   0.97005119     19.565074      235.25673    
     99000   0.97304908     19.391403      235.15653    
    100000   0.96685873     19.240616      234.95484    
Loop time of 318.729 on 2 procs for 100000 steps with 1000 atoms

Performance: 271076.513 tau/day, 313.746 timesteps/s
102.8% CPU use with 1 MPI tasks x 2 OpenMP threads

MPI task timing breakdown:
Section |  min time  |  avg time  |  max time  |%varavg| %total
---------------------------------------------------------------
Pair    | 0.82566    | 0.82566    | 0.82566    |   0.0 |  0.26
Bond    | 1.9119     | 1.9119     | 1.9119     |   0.0 |  0.60
Neigh   | 311.22     | 311.22     | 311.22     |   0.0 | 97.65
Comm    | 0.028965   | 0.028965   | 0.028965   |   0.0 |  0.01
Output  | 0.22818    | 0.22818    | 0.22818    |   0.0 |  0.07
Modify  | 4.217      | 4.217      | 4.217      |   0.0 |  1.32
Other   |            | 0.2936     |            |       |  0.09

Nlocal:           1000 ave        1000 max        1000 min
Histogram: 1 0 0 0 0 0 0 0 0 0
Nghost:              0 ave           0 max           0 min
Histogram: 1 0 0 0 0 0 0 0 0 0
Neighs:           4810 ave        4810 max        4810 min
Histogram: 1 0 0 0 0 0 0 0 0 0

Total # of neighbors = 4810
Ave neighs/atom = 4.81
Ave special neighs/atom = 1.998
Neighbor list builds = 1042
Dangerous builds = 0

# Replace lj potential, now collapse
pair_style      lj/cut 3

# Cutoff simul when gyration under 5
# Variable created with equal requires v_ + 'name'
fix 3 all halt 1000 v_rog < 7

run 5000000
Generated 0 of 0 mixed pair_coeff terms from geometric mixing rule
Last active /omp style is angle_style cosine/omp
Per MPI rank memory allocation (min/avg/max) = 1860 | 1860 | 1860 Mbytes
   Step          Temp         Enthalpy         c_1      
    100000   0.96685873     18.805376      234.95484    
    101000   0.97052699     19.297759      234.80987    
    102000   1.0346117      19.390917      234.58664    
    103000   0.9866927      18.79869       234.67865    
    104000   0.99398705     18.835898      234.59697    
    105000   1.0262541      19.464228      234.44502    
    106000   1.0364684      18.943586      234.34018    
    107000   1.0101103      19.491086      234.09432    
    108000   0.9880329      19.376781      234.01973    
    109000   0.97839834     19.090412      234.08412    
    110000   0.98505127     19.180413      234.0135     
    111000   1.0375688      19.174998      234.03691    
    112000   0.97485604     19.0282        233.70971    
    113000   0.96523534     18.463423      233.67533    
    114000   0.94499078     19.211027      233.72113    
    115000   0.99187574     19.553696      233.39394    
    116000   0.97001647     18.439845      233.39937    
    117000   1.0143018      19.148026      233.09234    
    118000   1.0229272      19.873844      232.91242    
    119000   1.0097198      19.367743      233.06272    
    120000   0.99444849     18.963385      232.93999    
    121000   0.99480066     19.367208      232.90721    
    122000   1.038602       19.390553      232.615      
    123000   1.0003999      18.887396      232.37852    
    124000   0.95922761     18.999405      232.16541    
    125000   1.003142       18.612218      232.03261    
    126000   1.030909       18.737819      232.01183    
    127000   0.97305286     19.241003      231.66846    
    128000   1.0165442      18.510897      231.26482    
    129000   0.98897526     18.705523      231.11849    
    130000   0.98940616     18.886997      231.20188    
    131000   0.95947257     18.795874      231.22564    
    132000   1.0436631      18.935929      231.31807    
    133000   0.99312926     18.976969      231.2297     
    134000   0.96667872     19.090477      231.21151    
    135000   0.95757068     19.368779      231.19271    
    136000   0.97965571     18.871702      231.22585    
    137000   1.0171104      18.924095      231.00654    
    138000   0.99018678     19.149171      230.85763    
    139000   0.984252       18.995484      230.73688    
    140000   1.0026797      18.407043      230.7029     
    141000   0.99182339     19.009841      230.28447    
    142000   1.0049557      18.813939      230.18373    
    143000   1.0157492      19.165958      230.22267    
    144000   0.97938309     18.803951      230.218      
    145000   0.95264851     18.947813      230.11675    
    146000   0.96194996     18.85169       230.03005    
    147000   0.9840704      18.915852      229.80998    
    148000   1.0026515      18.741833      229.73218    
    149000   1.0057289      19.207805      229.73077    
    150000   1.0303798      18.91347       229.52742    
    151000   0.99247363     18.526187      229.63998    
    152000   1.0250899      19.175768      229.43079    
    153000   1.0270921      18.76341       229.2101     
    154000   0.9810292      18.819958      229.02436    
    155000   0.99846349     19.199411      229.17386    
    156000   0.97990267     18.84072       229.07141    
    157000   1.0285624      19.070992      228.74424    
    158000   1.0046527      19.065313      228.54906    
    159000   1.0058816      18.805279      228.2052     
    160000   1.0159822      18.896645      228.1823     
    161000   0.97875535     18.692786      228.13276    
    162000   0.98630792     18.518401      228.00832    
    163000   1.0173454      19.101374      228.1098     
    164000   1.006264       18.827667      228.02058    
    165000   1.0449145      19.469454      228.00755    
    166000   1.0661723      19.129114      227.89932    
    167000   0.97076666     19.342892      227.7697     
    168000   0.99909652     19.08108       227.72416    
    169000   0.97073341     18.973216      227.47425    
    170000   1.0329546      19.207504      226.95833    
    171000   1.0238612      18.965413      226.74417    
    172000   1.0480967      18.832951      226.68859    
    173000   0.98673949     18.720843      226.56971    
    174000   0.96476283     19.023392      226.60847    
    175000   0.94975445     18.715981      226.58681    
    176000   0.95907263     19.083077      226.40941    
    177000   0.99666704     18.886425      226.41378    
    178000   0.99405308     18.856865      226.67149    
    179000   1.0221395      18.968217      226.68759    
    180000   0.99538245     19.363839      226.43696    
    181000   0.99110973     18.918023      226.43614    
    182000   1.0000012      18.803841      226.41694    
    183000   1.0192481      19.142718      226.49998    
    184000   1.0087329      19.115285      226.47079    
    185000   0.95958241     19.453103      226.11811    
    186000   1.0100493      18.753591      225.79227    
    187000   1.0135809      18.904893      225.40765    
    188000   1.0020051      18.836073      225.27817    
    189000   0.99423789     18.728252      225.2507     
    190000   0.97739726     18.71602       225.15372    
    191000   1.0226667      19.244318      225.07608    
    192000   1.0075951      18.938133      224.85133    
    193000   1.0269922      18.763757      224.68264    
    194000   1.030972       19.149         224.57005    
    195000   0.97002199     18.564511      224.23033    
    196000   1.0206668      18.825867      224.13711    
    197000   1.0203387      19.127341      223.83643    
    198000   1.0208435      18.68842       223.60068    
    199000   0.96949727     18.942598      223.46716    
    200000   0.975344       18.698511      223.37015    
    201000   0.99462166     18.520393      223.4425     
    202000   1.0232285      18.981727      223.41005    
    203000   0.98513531     18.229995      223.44894    
    204000   1.0503629      19.400643      223.25251    
    205000   0.98888369     19.245529      223.19659    
    206000   1.0308445      18.859384      223.26271    
    207000   0.96495817     18.713885      223.28666    
    208000   1.0083807      18.452619      223.16701    
    209000   1.016942       19.135382      223.02707    
    210000   1.0103571      19.311154      222.53051    
    211000   0.99278403     18.638316      222.2862     
    212000   1.0425525      19.21009       222.00707    
    213000   1.0281574      19.14526       221.78558    
    214000   1.0360696      18.666258      221.89483    
    215000   1.0414771      18.51672       221.74949    
    216000   0.963624       18.249315      221.79603    
    217000   0.94740306     18.49198       221.9493     
    218000   1.0109936      18.996736      221.86086    
    219000   0.96853277     19.085154      221.79359    
    220000   1.0127136      19.167936      221.4896     
    221000   1.0260746      18.719836      221.46007    
    222000   1.0128884      18.947539      221.40361    
    223000   0.98697314     19.208372      221.14841    
    224000   1.0070362      18.972512      220.83536    
    225000   0.99390282     18.780003      220.68243    
    226000   0.99306637     18.950724      220.7028     
    227000   0.96480887     19.161284      220.46016    
    228000   1.016894       18.971766      220.35687    
    229000   1.0043009      19.121966      220.31087    
    230000   1.0188051      19.461855      220.06435    
    231000   1.0027997      18.640191      219.88567    
    232000   1.0239381      18.628084      219.85989    
    233000   1.0349917      18.862209      219.79309    
    234000   1.0445346      18.64518       219.58548    
    235000   1.0002562      19.361739      219.55318    
    236000   1.0284304      19.280837      219.43671    
    237000   1.0122399      18.397562      219.32388    
    238000   1.0228353      18.952946      219.36631    
    239000   1.0413487      19.044863      219.26005    
    240000   1.0107764      18.619066      218.81588    
    241000   1.009227       18.738178      218.7339     
    242000   1.0203809      19.029707      218.78612    
    243000   0.97053159     18.461346      218.51022    
    244000   1.0302066      18.972661      218.59262    
    245000   1.0012796      18.931661      218.5536     
    246000   0.989807       19.112903      218.25361    
    247000   0.96350967     18.855628      218.07388    
    248000   1.0299207      19.178281      217.82841    
    249000   1.0123669      19.255125      217.71883    
    250000   0.99965828     18.856293      217.37079    
    251000   1.0168083      18.98582       217.05521    
    252000   1.0469914      18.648043      217.09625    
    253000   0.96081542     18.849255      217.36788    
    254000   0.93597803     18.629891      217.3257     
    255000   0.97043947     18.899159      217.2375     
    256000   0.95489864     18.860368      217.17716    
    257000   1.0081251      19.427524      216.89057    
    258000   0.96069684     18.897585      216.61733    
    259000   1.0007526      18.854564      216.5293     
    260000   0.98333986     18.813615      216.48155    
    261000   0.9752476      18.951686      216.30819    
    262000   0.98853279     18.896838      216.15927    
    263000   1.0079827      18.962264      216.25044    
    264000   1.0057604      18.586394      216.04682    
    265000   1.0110316      18.770006      216.00158    
    266000   1.018266       19.109668      215.72926    
    267000   1.0155607      19.083315      215.40075    
    268000   1.0379216      19.015795      215.30855    
    269000   0.99138344     18.831259      215.48125    
    270000   0.97781934     18.561817      215.54879    
    271000   1.0620462      19.049625      215.32818    
    272000   0.9882808      19.198672      215.24159    
    273000   1.0366495      19.058124      215.35601    
    274000   1.0469347      19.388007      215.11842    
    275000   0.98288598     18.655252      214.98257    
    276000   0.98033799     19.004306      214.87026    
    277000   1.0058572      19.15623       214.85387    
    278000   0.96476005     19.15694       214.65356    
    279000   1.022038       18.530088      214.4809     
    280000   1.0411735      18.816913      214.35485    
    281000   1.0003475      19.115977      214.27457    
    282000   1.0567183      19.195649      214.24643    
    283000   0.97389823     18.790618      214.50254    
    284000   1.0162596      19.162254      214.55919    
    285000   0.98688812     19.062631      214.4525     
    286000   0.99219736     19.291396      214.38385    
    287000   0.99861527     19.330426      214.07991    
    288000   1.0184297      18.878905      213.67702    
    289000   1.0363382      19.320307      213.40894    
    290000   0.98488449     18.938079      213.53333    
    291000   0.98505498     18.670894      213.40674    
    292000   1.004893       19.066232      213.25933    
    293000   1.0103174      18.790098      213.32411    
    294000   0.96245959     19.515864      213.32034    
    295000   1.0206749      19.289025      213.38437    
    296000   1.0080511      19.208228      213.4369     
    297000   1.0197846      19.121362      213.37551    
    298000   1.0676933      18.878697      213.35333    
    299000   0.99552817     18.372239      213.43315    
    300000   0.97988565     19.078896      212.97717    
    301000   1.003166       18.891376      212.94521    
    302000   0.97327221     18.725361      212.76183    
    303000   1.0110914      19.054577      212.53651    
    304000   0.97940607     19.040289      212.67177    
    305000   1.0319121      18.585698      212.71507    
    306000   1.0047713      18.830779      212.52316    
    307000   1.0631181      18.887924      212.43381    
    308000   0.97678666     19.125834      212.28305    
    309000   1.0054299      18.745736      212.17199    
    310000   1.0355096      18.313692      211.97859    
    311000   0.9926425      18.436232      211.62591    
    312000   0.99610891     18.985032      211.54154    
    313000   1.0025143      18.608601      211.80578    
    314000   1.0335493      19.196641      211.85051    
    315000   1.0185039      19.376988      211.59424    
    316000   1.0138186      19.181754      211.42587    
    317000   1.0292724      18.887105      211.23698    
    318000   1.001146       19.076424      211.2297     
    319000   0.96550775     18.747191      211.15626    
    320000   0.98619014     19.188631      211.00699    
    321000   1.0166114      18.936695      211.00556    
    322000   1.0060369      19.276259      210.97886    
    323000   1.014339       19.078395      210.84352    
    324000   1.0133952      19.257484      210.90714    
    325000   1.0411022      19.64281       210.82026    
    326000   1.0195979      19.159182      210.61152    
    327000   1.0070072      19.195954      210.74362    
    328000   1.0115066      19.360255      210.6976     
    329000   0.98062736     19.141787      210.56241    
    330000   1.0455792      19.525426      210.3279     
    331000   1.0466194      18.833147      210.14107    
    332000   0.96084778     18.709579      210.28335    
    333000   0.98804619     19.014576      210.03295    
    334000   0.97182352     18.680495      209.86283    
    335000   1.0142666      19.047658      209.72694    
    336000   1.0173769      19.081435      209.64389    
    337000   1.0134133      18.747657      209.488      
    338000   1.0291956      18.827493      209.63605    
    339000   0.99258997     19.15308       209.55245    
    340000   1.0115101      18.891004      209.75039    
    341000   0.95877206     19.026547      209.66497    
    342000   1.0441114      19.574978      209.55869    
    343000   1.0148237      18.814325      209.42139    
    344000   0.97990143     19.075445      209.1576     
    345000   0.98637156     18.270724      209.13597    
    346000   1.0042466      19.140837      208.88788    
    347000   1.0223754      19.267415      208.95675    
    348000   0.97717158     19.150447      208.76235    
    349000   0.99025084     19.005333      208.85931    
    350000   1.0136731      18.800821      208.51491    
    351000   1.0400258      19.257443      208.47587    
    352000   0.92188157     19.062527      208.59391    
    353000   1.007295       18.984164      208.71329    
    354000   1.0009193      18.477657      208.49446    
    355000   1.0495242      18.792064      208.39375    
    356000   0.99428357     18.834512      208.28976    
    357000   0.97349817     18.63575       208.14136    
    358000   0.97361743     19.310572      208.08922    
    359000   0.98006971     18.67439       208.06352    
    360000   0.98511842     18.92069       207.96334    
    361000   1.069346       19.055122      207.58123    
    362000   1.0129055      19.215066      207.19525    
    363000   1.0195813      18.681889      207.08293    
    364000   0.98399843     18.92977       206.96005    
    365000   1.0035427      18.832352      206.76337    
    366000   1.0430401      18.97504       206.78408    
    367000   0.9531579      19.19054       206.6622     
    368000   1.0036761      19.284323      206.48452    
    369000   1.0291691      18.88065       206.26284    
    370000   0.99609018     19.209354      206.20529    
    371000   1.0008698      18.83628       205.83081    
    372000   0.96418018     19.095852      205.67596    
    373000   0.97790138     18.683597      205.71195    
    374000   1.0625765      19.078517      205.36238    
    375000   0.99533505     19.315212      205.03465    
    376000   0.99523233     19.015101      204.82054    
    377000   1.013707       18.997073      204.67744    
    378000   1.0176199      19.142586      204.6674     
    379000   1.0179719      19.541045      204.56658    
    380000   0.99800032     18.659631      204.41929    
    381000   0.96538148     19.030388      204.21237    
    382000   0.95634933     18.73031       204.07314    
    383000   0.97418657     19.221882      203.70985    
    384000   1.0036344      18.725937      203.65174    
    385000   0.96232885     18.889951      203.68398    
    386000   0.97885845     19.763281      203.37782    
    387000   0.96329375     19.38833       203.19744    
    388000   1.0089285      19.26934       202.93038    
    389000   0.97032062     18.618538      202.80997    
    390000   1.0070062      18.948945      202.73922    
    391000   1.0560153      18.937684      202.53873    
    392000   0.985826       18.663044      202.35479    
    393000   0.98241684     18.365021      202.33576    
    394000   1.0066041      18.798176      202.35465    
    395000   0.9784791      19.290704      202.38531    
    396000   1.0181041      19.041938      201.97498    
    397000   1.0060147      19.039258      201.83268    
    398000   0.99233552     19.035926      201.48434    
    399000   0.96461658     19.040924      201.54103    
    400000   0.99823528     19.074244      201.21027    
    401000   1.0007858      18.551112      201.01928    
    402000   0.98426852     18.732089      200.84204    
    403000   1.0048412      19.029444      200.81207    
    404000   0.99598636     18.838863      200.83643    
    405000   0.99729638     18.602338      200.58942    
    406000   0.98697215     18.995961      200.71549    
    407000   0.95815589     18.640496      200.70506    
    408000   1.019782       19.155255      200.58717    
    409000   1.0076082      19.251158      200.24429    
    410000   1.0022283      18.707581      200.19305    
    411000   0.99572446     18.724956      200.29828    
    412000   0.98041925     19.056486      200.19975    
    413000   1.0025229      19.143401      199.84832    
    414000   1.0396187      18.561976      199.93036    
    415000   1.0457071      18.869136      199.87129    
    416000   0.98148362     18.685618      199.86046    
    417000   0.97527214     18.604795      199.6202     
    418000   1.0620305      19.652283      199.56619    
    419000   1.0054135      18.731715      199.42498    
    420000   0.95467895     18.682509      199.46605    
    421000   1.0016723      19.371517      199.40507    
    422000   1.00898        19.220179      199.23606    
    423000   0.98540034     18.899986      199.12628    
    424000   0.97533284     19.237034      199.16957    
    425000   0.9887065      19.447241      199.15332    
    426000   0.9974193      19.029285      198.87338    
    427000   0.9836932      18.770799      198.93005    
    428000   0.95980686     18.956752      198.98355    
    429000   1.0625922      18.947643      198.84343    
    430000   1.0190823      18.638112      198.8477     
    431000   0.9561392      18.678192      198.8129     
    432000   1.0122073      19.087373      198.59255    
    433000   1.0102682      19.058381      198.42237    
    434000   0.99270447     18.588096      198.45074    
    435000   1.0285111      19.128427      198.63283    
    436000   0.96705833     19.185053      198.71505    
    437000   0.97057109     18.782586      198.54479    
    438000   1.0306602      19.093801      198.68795    
    439000   1.0159347      18.538646      198.74484    
    440000   0.98531764     19.383462      198.66963    
    441000   0.9748568      18.771566      198.49354    
    442000   0.94243875     18.520105      198.40014    
    443000   1.0090974      19.434075      198.24111    
    444000   1.0496664      19.259706      198.01999    
    445000   0.95967859     18.964171      197.9138     
    446000   1.0056027      18.957263      197.49402    
    447000   0.98727454     19.004506      197.37677    
    448000   0.96230989     18.443109      197.47437    
    449000   1.0116151      19.111031      197.19418    
    450000   0.98218028     18.674727      196.98552    
    451000   1.0132658      18.965468      196.8618     
    452000   1.0067245      19.196072      197.06735    
    453000   1.0204499      19.026901      196.98778    
    454000   0.99509086     18.844505      196.90345    
    455000   1.0154197      18.829737      196.98777    
    456000   1.0013762      19.212022      196.9293     
    457000   1.0478417      18.78551       197.00735    
    458000   1.03653        19.50242       196.98126    
    459000   0.99915468     18.303451      197.01161    
    460000   0.96423485     18.686178      196.98852    
    461000   1.0418436      18.887601      197.17309    
    462000   0.98728187     19.444605      196.92779    
    463000   1.0011109      18.528516      196.89912    
    464000   1.0263887      18.742145      196.86507    
    465000   1.0206142      18.780198      196.77349    
    466000   0.99870735     19.391523      196.40599    
    467000   1.0071161      18.730513      196.38506    
    468000   1.0261353      19.098769      196.2215     
    469000   0.9952784      19.379037      196.13422    
    470000   1.0339582      19.241089      196.03395    
    471000   1.0473475      19.008815      196.13922    
    472000   0.98005767     18.630781      195.97974    
    473000   1.0042593      18.686999      195.76616    
    474000   1.0284022      18.972419      195.88415    
    475000   0.94744184     18.630861      195.90209    
    476000   1.0030079      18.996379      195.89063    
    477000   1.0243216      19.092385      196.01332    
    478000   1.016322       18.710966      195.79675    
    479000   1.0092464      19.087204      195.8195     
    480000   0.98372291     19.138248      195.97869    
    481000   1.0482688      18.8851        196.02343    
    482000   0.98175755     19.327121      195.8755     
    483000   0.99108223     18.982872      195.51948    
    484000   1.0217894      18.689119      195.31818    
    485000   0.97948547     19.000459      195.09263    
    486000   0.99515743     18.663197      194.99332    
    487000   0.99032244     18.388769      195.01535    
    488000   0.9983481      18.504083      195.04307    
    489000   0.98849072     18.581088      194.79546    
    490000   1.0201828      18.618704      194.73277    
    491000   1.0099279      19.071179      194.62057    
    492000   1.0138681      18.978914      194.4576     
    493000   1.0312509      19.245186      194.41123    
    494000   1.0044467      19.471605      194.39062    
    495000   0.990157       18.511759      194.29327    
    496000   0.95002112     19.0085        194.13164    
    497000   0.97408052     18.75507       194.06842    
    498000   1.0280799      18.654684      193.85487    
    499000   0.9501463      18.434692      193.68464    
    500000   0.98955639     18.51829       193.47805    
    501000   1.0115668      18.777589      193.09635    
    502000   1.0220203      18.694602      193.04567    
    503000   1.0177657      19.172494      193.02026    
    504000   1.0036039      18.759825      192.70013    
    505000   1.0222835      19.037129      192.7163     
    506000   1.0010565      18.407361      192.48576    
    507000   1.0218864      18.578524      192.33443    
    508000   0.97401953     18.70477       192.04342    
    509000   0.99605472     19.179841      191.94548    
    510000   1.005749       19.788279      191.72368    
    511000   1.0357821      18.727165      191.76283    
    512000   0.95267648     18.490099      191.44942    
    513000   0.98830117     18.211598      191.24956    
    514000   1.0026564      18.413723      191.41493    
    515000   1.0110314      19.001844      191.45061    
    516000   0.96794336     18.370594      191.30955    
    517000   1.0000566      18.915516      191.38728    
    518000   0.97457925     18.379293      191.45214    
    519000   0.98319365     18.679788      191.16324    
    520000   0.96657239     18.866405      190.98394    
    521000   1.0007913      18.936813      191.22537    
    522000   1.0154655      18.502126      191.09981    
    523000   1.00847        18.700401      190.87986    
    524000   0.9809369      19.187891      190.67921    
    525000   0.99442408     19.136982      190.44804    
    526000   0.98297058     18.912482      190.29385    
    527000   1.0540755      18.587079      190.22403    
    528000   1.01465        18.992661      190.07215    
    529000   1.0280792      19.003022      190.09189    
    530000   1.02924        19.101208      189.80257    
    531000   1.0348196      18.786269      189.70879    
    532000   0.939721       18.808122      189.82006    
    533000   1.0170072      18.498963      189.64296    
    534000   0.98740034     18.712317      189.65908    
    535000   1.0044247      18.742774      189.65387    
    536000   1.0191616      18.998028      189.4512     
    537000   0.99774229     18.91085       189.14331    
    538000   1.0014587      18.905887      189.032      
    539000   1.0116451      18.618017      189.04412    
    540000   0.95304318     18.604533      188.88158    
    541000   0.97913623     18.537541      188.79061    
    542000   1.0244202      18.657504      188.80804    
    543000   1.0060144      19.220169      188.79233    
    544000   1.0260272      18.618548      188.67771    
    545000   1.0088112      18.622761      188.48647    
    546000   1.0254767      18.880593      188.24964    
    547000   0.97117549     18.62362       187.90246    
    548000   1.0213573      18.572323      187.70733    
    549000   1.0069598      19.129549      187.56247    
    550000   1.0036583      18.8809        187.33953    
    551000   1.0286346      18.839773      187.13185    
    552000   1.037537       18.852878      186.86494    
    553000   1.0015697      18.908798      186.63054    
    554000   1.0430364      19.438493      186.61854    
    555000   0.98543726     18.80241       186.56516    
    556000   0.99476317     19.020094      186.22809    
    557000   1.0131461      18.91671       186.28712    
    558000   1.0201988      18.817727      186.10807    
    559000   1.0164669      18.805243      186.33057    
    560000   1.0307462      19.141037      186.44824    
    561000   1.0227716      18.706529      186.47751    
    562000   0.9963618      18.461856      186.42455    
    563000   1.0409138      18.796049      186.41926    
    564000   1.0088431      18.884672      186.38772    
    565000   1.0249259      19.331941      186.31692    
    566000   1.0287792      18.967779      186.04146    
    567000   1.0056032      18.229138      185.96096    
    568000   1.0211188      19.146112      185.84059    
    569000   1.0112801      19.081331      185.78759    
    570000   0.97866209     18.627913      185.45286    
    571000   1.0030837      18.352097      185.33805    
    572000   0.99399743     19.174468      185.11635    
    573000   0.97560782     18.162957      184.84303    
    574000   0.98657508     18.334837      184.58659    
    575000   1.0354083      18.753149      184.33382    
    576000   0.99429877     18.908062      184.19155    
    577000   0.990681       18.790801      184.19607    
    578000   0.9757734      18.356125      183.89863    
    579000   1.0023288      18.460476      183.88777    
    580000   0.99406997     18.804786      183.58622    
    581000   0.9711561      18.535325      183.58577    
    582000   0.99515844     18.3703        183.61269    
    583000   1.0270468      18.875127      183.51792    
    584000   1.0075439      18.701911      183.41211    
    585000   1.0064309      18.74319       183.48371    
    586000   0.99532636     18.625636      183.46966    
    587000   1.0639494      18.88045       183.64377    
    588000   0.96057764     18.423541      183.32083    
    589000   0.98108007     19.116872      183.28514    
    590000   1.0207135      18.499337      182.88269    
    591000   1.0122786      18.975581      182.7369     
    592000   0.99391565     18.453309      182.32153    
    593000   0.98027127     18.643207      182.2134     
    594000   0.99661911     18.871004      181.86812    
    595000   1.0282722      19.49457       181.90685    
    596000   1.0204695      19.29865       181.61982    
    597000   1.0052621      18.728478      181.37427    
    598000   0.98750037     19.439187      181.36217    
    599000   1.0354198      19.318299      180.97942    
    600000   1.0078181      19.251665      180.92812    
    601000   0.98181805     18.447072      180.8357     
    602000   0.98795891     18.114914      180.81815    
    603000   1.0597536      18.554201      180.76312    
    604000   1.0695655      19.0035        180.73001    
    605000   1.0245963      18.88981       180.63738    
    606000   0.98835185     18.603766      180.6295     
    607000   0.99198241     18.344855      180.56652    
    608000   1.0082394      18.509716      180.71679    
    609000   0.96757722     18.596167      180.40484    
    610000   0.98701675     18.855223      180.31036    
    611000   0.9732089      18.643613      180.16466    
    612000   0.9834265      18.439473      180.00635    
    613000   0.95252316     18.457321      179.56835    
    614000   0.99509641     18.499443      179.56911    
    615000   0.95004159     18.756399      179.34946    
    616000   0.98795696     18.728337      179.29221    
    617000   1.0528561      18.847359      179.31971    
    618000   1.0033707      19.350753      179.29861    
    619000   1.00234        18.667144      179.18348    
    620000   1.0114257      18.70084       179.26948    
    621000   1.0109331      18.990543      179.11039    
    622000   0.98398986     19.087945      179.06687    
    623000   0.9871723      18.281168      178.8334     
    624000   0.9996264      19.172353      178.55588    
    625000   1.0058531      18.42929       178.51804    
    626000   0.96460622     18.493814      178.48179    
    627000   1.0047737      18.788657      178.43254    
    628000   1.0121744      18.903391      178.37381    
    629000   0.97117148     18.688773      178.34915    
    630000   1.014738       18.636982      178.43457    
    631000   1.0091123      18.92453       178.24722    
    632000   1.0239992      18.950491      178.32986    
    633000   1.0083233      18.460019      178.08329    
    634000   0.98436369     18.251329      177.83122    
    635000   0.94752801     18.599051      177.54341    
    636000   1.0054213      18.814022      177.34035    
    637000   0.9766342      18.236878      177.35353    
    638000   0.98829951     18.81061       177.25164    
    639000   1.0144693      18.823253      176.99446    
    640000   1.0587923      18.756052      176.92925    
    641000   0.9709724      17.98691       177.05922    
    642000   0.97719673     19.176559      177.19713    
    643000   1.0074414      19.198769      177.15778    
    644000   1.015873       18.968384      177.08488    
    645000   1.0583826      19.362797      177.07797    
    646000   1.0225717      18.590103      176.95717    
    647000   1.0198119      18.633045      177.04419    
    648000   1.0181793      18.851837      176.983      
    649000   0.99190078     18.755267      176.88794    
    650000   1.0297548      18.300553      176.8372     
    651000   0.98026713     19.235568      176.71939    
    652000   0.96741782     18.886132      176.32952    
    653000   1.0037787      18.431348      176.1885     
    654000   0.98082406     18.481184      176.1024     
    655000   0.99255937     18.756025      175.99142    
    656000   0.96692255     18.929315      176.1374     
    657000   1.0296425      18.872221      176.0962     
    658000   1.0099583      18.696848      175.96083    
    659000   1.031736       18.330494      175.85253    
    660000   0.98733753     18.893959      175.73095    
    661000   0.99707393     19.427453      175.5403     
    662000   1.0165083      18.400068      175.53731    
    663000   0.9631775      18.16512       175.51404    
    664000   0.97377478     19.152775      175.45744    
    665000   0.95096108     18.543984      175.40631    
    666000   1.0092692      18.410669      175.35724    
    667000   1.000663       19.060971      175.38979    
    668000   1.018453       18.671134      175.29156    
    669000   1.0041013      18.797396      175.22863    
    670000   0.94516999     18.074965      175.24428    
    671000   0.94956457     18.629995      175.24311    
    672000   1.0062236      18.750909      175.21302    
    673000   1.0474272      18.629307      175.18364    
    674000   1.0341541      18.060052      175.25661    
    675000   0.99835266     18.898398      175.20097    
    676000   1.0108398      18.775343      175.35827    
    677000   1.0432239      18.670773      175.37169    
    678000   1.014738       18.605327      175.39286    
    679000   1.0062945      19.194455      175.76717    
    680000   0.97252126     18.227617      175.57679    
    681000   0.97273194     18.392211      175.33574    
    682000   1.0564928      19.079002      175.14382    
    683000   1.0153755      18.682314      174.90357    
    684000   1.002119       18.814567      174.77977    
    685000   0.98427629     18.682569      174.95971    
    686000   0.98471785     18.416374      174.79442    
    687000   1.00495        18.734127      174.69464    
    688000   1.0110128      18.620131      174.58211    
    689000   1.0173787      18.930027      174.44501    
    690000   0.97286086     19.385547      174.43717    
    691000   0.97610227     18.646419      174.35866    
    692000   0.99493078     18.942189      174.3774     
    693000   1.0197493      18.426601      174.18116    
    694000   0.99267066     18.782105      174.15577    
    695000   0.98386552     18.522813      174.1623     
    696000   0.99225277     18.998907      174.06279    
    697000   1.0318599      18.943682      173.84829    
    698000   0.9927291      18.020923      173.80955    
    699000   0.99094958     18.646076      173.78327    
    700000   1.0058659      18.006319      173.88519    
    701000   0.95432724     19.036762      174.02196    
    702000   1.005794       18.673293      174.09041    
    703000   0.98925318     18.804127      173.83532    
    704000   1.0294665      18.642317      173.66355    
    705000   0.991926       18.550391      173.51539    
    706000   0.97369477     18.301446      173.35521    
    707000   1.0306245      18.700881      173.29829    
    708000   0.98151306     18.729307      173.1386     
    709000   1.010517       18.812304      173.30185    
    710000   0.99844004     18.473835      173.21248    
    711000   1.0154493      18.538211      173.04536    
    712000   0.97584777     18.620198      172.84147    
    713000   0.99985922     19.006583      172.58824    
    714000   0.96497705     18.602639      172.49437    
    715000   1.0052026      18.723854      172.42631    
    716000   0.97445905     18.350637      172.48729    
    717000   1.0564534      18.891904      172.38254    
    718000   1.0066639      18.589053      172.41584    
    719000   0.96419286     18.182665      172.26609    
    720000   1.0375893      19.067696      172.35377    
    721000   0.97535191     18.478447      172.07128    
    722000   0.99049212     18.235401      171.77519    
    723000   1.0110346      18.895841      171.7142     
    724000   0.98155216     19.005161      171.50355    
    725000   0.97548538     18.356639      171.38098    
    726000   0.95605366     18.635634      171.23826    
    727000   1.0243628      19.016931      170.90735    
    728000   1.0578072      18.441889      170.73422    
    729000   1.0066109      18.794995      170.51585    
    730000   1.0307007      19.462104      170.40125    
    731000   1.0308846      18.679531      170.26425    
    732000   0.99293414     19.041614      170.19955    
    733000   1.013959       18.693813      170.30017    
    734000   0.99082605     18.68045       170.19081    
    735000   0.99152997     18.900383      170.23382    
    736000   1.0060598      18.873736      170.15949    
    737000   1.0032755      19.049245      170.03216    
    738000   1.0031802      18.58573       170.06139    
    739000   1.0649352      18.560259      169.95625    
    740000   1.0030066      18.901242      169.76572    
    741000   0.98360525     18.547431      169.59715    
    742000   0.99906486     18.716843      169.47989    
    743000   1.0361672      18.682472      169.4769     
    744000   0.98660816     18.461288      169.197      
    745000   0.973997       18.737457      169.29665    
    746000   1.0128718      18.658688      169.0109     
    747000   1.0078838      18.441843      168.73678    
    748000   1.035184       18.641011      168.71692    
    749000   0.97699416     18.710519      168.70429    
    750000   1.0236265      18.752553      168.57841    
    751000   0.99997183     18.427006      168.49247    
    752000   0.99327485     18.980591      168.2743     
    753000   0.99752566     19.340502      168.22068    
    754000   0.9838588      18.571666      168.34401    
    755000   0.99197479     18.231224      168.18274    
    756000   0.97850998     18.193076      168.12381    
    757000   1.0037504      19.116142      167.93594    
    758000   0.94879769     18.556453      168.06008    
    759000   1.0125392      18.414116      167.78199    
    760000   0.99516117     18.715408      167.67804    
    761000   0.96690155     19.133323      167.53673    
    762000   0.99138558     18.581134      167.50569    
    763000   0.94385936     18.18866       167.56761    
    764000   0.98154247     18.6606        167.65091    
    765000   0.99110419     18.336847      167.36108    
    766000   1.0168693      18.964416      167.20416    
    767000   0.9939561      18.618265      167.10494    
    768000   0.93228567     18.678712      167.02693    
    769000   1.0429188      18.996014      167.07105    
    770000   1.0028967      18.708689      167.17108    
    771000   1.0306484      18.757802      167.14472    
    772000   1.011745       18.913073      167.1147     
    773000   0.98978185     18.878147      167.14106    
    774000   1.009176       18.768095      167.19688    
    775000   0.96391442     18.637849      167.09768    
    776000   1.0292536      18.704212      167.05108    
    777000   1.0268547      18.610191      167.00015    
    778000   1.0146635      18.609258      166.83894    
    779000   0.97257576     18.533334      166.77914    
    780000   1.0587495      18.556138      166.59191    
    781000   1.0115441      18.732384      166.53037    
    782000   0.9498346      18.417282      166.39601    
    783000   0.98389716     19.085676      166.48343    
    784000   0.95549645     18.527066      166.34711    
    785000   1.0115737      18.698577      166.33072    
    786000   0.99402014     18.581899      166.01462    
    787000   0.93971156     18.466525      165.82064    
    788000   0.99255502     18.642494      165.61428    
    789000   1.0225906      18.55118       165.44363    
    790000   0.96991932     18.292622      165.34655    
    791000   1.014582       18.477825      165.19572    
    792000   1.0306518      19.056808      165.10655    
    793000   0.97835219     18.751897      165.16202    
    794000   1.0067197      18.740575      165.35742    
    795000   0.96896032     18.776934      165.08399    
    796000   1.0006264      18.436622      165.03448    
    797000   1.0070479      18.668619      164.86722    
    798000   0.99451225     18.118623      164.71091    
    799000   1.0822932      18.64497       164.63978    
    800000   1.024079       18.716512      164.67517    
    801000   0.98891244     18.557316      164.40518    
    802000   0.97415312     18.257403      164.08973    
    803000   0.98846132     19.06917       164.12066    
    804000   0.95729437     17.711777      164.12521    
    805000   1.0046616      18.60069       163.98987    
    806000   0.99996441     18.690994      163.83571    
    807000   0.9916112      18.265258      163.79257    
    808000   1.0127983      18.504277      163.69727    
    809000   0.9826729      18.66843       163.83566    
    810000   1.0446986      18.662914      163.74978    
    811000   1.0169158      18.684168      163.81422    
    812000   1.0213131      18.746425      164.01052    
    813000   1.0322895      19.398276      163.97572    
    814000   1.0080427      18.546997      163.74733    
    815000   1.00615        18.462198      163.52635    
    816000   0.95737356     18.160591      163.45184    
    817000   1.0239385      18.302532      163.42613    
    818000   1.0038618      18.890131      163.25054    
    819000   0.97430843     18.764692      163.42279    
    820000   1.004334       18.980065      163.3331     
    821000   0.99646873     18.304223      163.27447    
    822000   1.0097577      18.715666      163.18349    
    823000   1.016915       18.835606      163.2581     
    824000   1.0005749      19.00254       163.26323    
    825000   0.97591588     18.708928      163.27311    
    826000   1.0262174      18.7018        163.14137    
    827000   1.0077501      18.304416      163.04045    
    828000   1.0261847      18.637849      163.33813    
    829000   0.99971561     18.259215      163.28862    
    830000   1.0027557      18.262855      163.17636    
    831000   0.98288695     18.169542      163.21875    
    832000   1.0345582      18.794405      162.95134    
    833000   0.95768077     18.13802       163.21062    
    834000   1.0220704      18.202624      163.19338    
    835000   1.0144697      18.074945      163.27162    
    836000   1.0133866      18.473512      163.13103    
    837000   1.0018063      18.781067      163.1442     
    838000   0.97374631     18.276852      162.92091    
    839000   0.9676956      18.605899      162.91308    
    840000   1.0117911      18.896982      162.76123    
    841000   1.0123109      18.572075      162.47752    
    842000   0.95145097     18.018846      162.23998    
    843000   1.0319251      17.891426      162.40022    
    844000   0.9819889      18.491621      162.22723    
    845000   0.983241       18.131834      162.13838    
    846000   1.0053268      18.645848      162.24044    
    847000   0.9948933      18.084992      162.0564     
    848000   1.0006787      18.455895      161.96132    
    849000   1.0131908      18.776679      161.79443    
    850000   0.99446611     18.731631      161.71788    
    851000   0.97992164     18.145451      161.68237    
    852000   1.0268317      18.707909      161.66074    
    853000   1.0257673      18.339082      161.596      
    854000   1.0441213      19.189933      161.30881    
    855000   1.0166848      18.596621      161.14109    
    856000   1.0004746      18.231969      160.92014    
    857000   1.0035861      18.918568      160.66531    
    858000   0.98152624     18.623926      160.66135    
    859000   0.98587949     18.547944      160.45519    
    860000   1.0340422      18.362862      160.3129     
    861000   0.99957715     18.838589      160.36204    
    862000   1.0059163      18.324195      160.42967    
    863000   0.99927586     18.459142      160.29001    
    864000   0.99663374     18.654866      160.30569    
    865000   0.98047402     18.341854      160.39452    
    866000   0.95726244     18.623881      160.33725    
    867000   1.0195254      18.543148      160.23382    
    868000   1.0073533      18.843492      160.09876    
    869000   0.99356295     18.266107      159.86638    
    870000   0.98421772     18.814246      159.8674     
    871000   1.0281382      18.704806      159.88765    
    872000   1.0528055      18.600915      159.90561    
    873000   1.0383604      18.117462      159.83586    
    874000   0.99337051     18.895289      159.73712    
    875000   0.98078074     18.733624      159.56664    
    876000   0.96947945     18.42708       159.5595     
    877000   1.0185334      18.649772      159.38088    
    878000   1.0344085      18.828447      159.13112    
    879000   1.0181986      18.548893      158.87276    
    880000   1.0044356      18.610654      158.88007    
    881000   0.94547963     18.260114      158.867      
    882000   0.98832281     18.29444       158.73313    
    883000   1.0057066      18.148933      158.51689    
    884000   1.0196751      18.57855       158.39291    
    885000   0.98071594     18.507145      158.37579    
    886000   0.98461837     18.275309      158.45295    
    887000   0.99216999     18.925288      158.36132    
    888000   0.97563282     18.430522      158.17141    
    889000   1.0038319      18.69734       158.31414    
    890000   0.96293404     18.297761      158.48748    
    891000   0.96895998     18.507467      158.42998    
    892000   0.9940961      18.531345      158.31413    
    893000   0.97917753     18.393145      157.841      
    894000   1.0371995      18.444874      157.84066    
    895000   1.0539609      18.902571      157.72689    
    896000   1.0032462      18.635527      157.81415    
    897000   0.99940913     18.375689      157.75199    
    898000   0.99226749     18.735103      157.65568    
    899000   1.0066308      18.457818      157.60594    
    900000   1.0110759      18.679327      157.52376    
    901000   1.0206485      17.966487      157.3888     
    902000   1.0512034      18.715703      157.15499    
    903000   0.99209015     18.610967      157.00713    
    904000   1.0229242      18.690636      156.91572    
    905000   1.0078531      18.849812      156.94137    
    906000   1.0121639      18.757847      156.88129    
    907000   1.0099409      18.81621       156.81448    
    908000   1.0003289      18.079298      156.63582    
    909000   1.0407636      18.01856       156.77993    
    910000   0.99612078     18.580014      156.73979    
    911000   0.9768084      18.192012      156.4725     
    912000   1.0206736      19.017817      156.50954    
    913000   0.99677062     18.37764       156.40978    
    914000   0.98771208     18.25673       156.35454    
    915000   0.93486205     18.393996      156.29602    
    916000   1.0137135      19.225178      156.17997    
    917000   1.0324252      18.43481       156.04118    
    918000   1.0158264      18.771853      155.98355    
    919000   1.0196099      18.78947       156.00024    
    920000   1.0131238      18.405657      155.88398    
    921000   1.0386555      18.857983      155.74256    
    922000   1.0100293      18.58662       155.57078    
    923000   0.9834178      18.510731      155.51272    
    924000   0.94309606     18.494676      155.39117    
    925000   0.96732858     18.197177      155.27334    
    926000   0.97717694     18.071303      154.97478    
    927000   0.99488451     18.615865      154.7233     
    928000   0.99246727     17.992995      154.80944    
    929000   1.0133769      18.785763      154.78935    
    930000   1.0344236      18.289833      154.62666    
    931000   0.99990827     18.555692      154.58965    
    932000   0.98845937     18.153298      154.40702    
    933000   0.99860489     17.993061      154.53097    
    934000   1.0170148      19.165902      154.40475    
    935000   1.0061548      18.408408      154.31472    
    936000   1.0444585      18.412863      154.16377    
    937000   1.0244589      18.513377      154.19843    
    938000   1.0028537      18.490179      154.27285    
    939000   0.97309712     18.217898      154.39404    
    940000   0.97042756     18.398252      154.36321    
    941000   0.98603718     18.36331       154.30019    
    942000   0.99386699     18.529789      154.24222    
    943000   0.98924385     18.041729      154.20554    
    944000   1.0312999      18.402831      154.12716    
    945000   1.0050545      18.905079      153.92903    
    946000   1.012871       18.709678      153.70849    
    947000   1.0239035      18.671864      153.60723    
    948000   1.0398964      18.270489      153.46098    
    949000   0.98013794     18.540472      153.30184    
    950000   1.0104319      17.935076      153.14396    
    951000   1.0158509      18.677144      153.09733    
    952000   1.0211779      17.948831      153.22636    
    953000   1.0070768      17.785249      153.21796    
    954000   0.98516413     18.537957      153.45689    
    955000   0.99927124     18.389689      153.33413    
    956000   0.99102119     18.419377      153.18987    
    957000   0.97947202     18.686407      153.21553    
    958000   1.0396882      18.537678      153.12092    
    959000   1.0419183      18.6514        152.93243    
    960000   0.96443858     17.759803      152.86033    
    961000   0.97492485     18.064176      152.56024    
    962000   0.97605936     18.033279      152.73561    
    963000   1.0088816      17.867458      152.70165    
    964000   0.98959237     18.606471      152.44991    
    965000   1.015192       18.54305       152.59254    
    966000   1.0130095      18.462305      152.53261    
    967000   1.0046393      18.189775      152.62181    
    968000   1.0105817      18.524698      152.49291    
    969000   0.98321047     18.745469      152.5289     
    970000   0.99334299     18.019814      152.52802    
    971000   1.0480506      18.339856      152.41368    
    972000   1.0064433      18.951872      152.41972    
    973000   0.99624921     18.613014      152.34811    
    974000   1.0170609      18.579741      152.04691    
    975000   1.0581901      18.2736        152.08842    
    976000   0.98532546     18.043973      152.11952    
    977000   1.0144387      18.000856      151.94313    
    978000   1.0030935      18.92441       151.81856    
    979000   1.0243623      18.463506      151.53129    
    980000   1.0075303      18.234866      151.53058    
    981000   0.98322087     18.356213      151.64557    
    982000   1.0040819      18.466303      151.66194    
    983000   0.96247736     18.444891      151.66217    
    984000   1.0386749      18.602775      151.7013     
    985000   0.99308291     18.340584      151.52237    
    986000   0.97589483     18.298571      151.74778    
    987000   1.0364318      18.214765      151.40166    
    988000   1.0332161      18.609781      151.26335    
    989000   0.95749011     18.429398      151.3487     
    990000   0.9874531      18.88862       151.4898     
    991000   0.9888711      18.589517      151.34041    
    992000   0.97558411     18.719347      151.40815    
    993000   1.0463408      18.776522      151.4182     
    994000   0.99814177     18.338129      151.50642    
    995000   1.0281997      18.582038      151.52064    
    996000   1.011353       18.26829       151.37295    
    997000   0.99017741     18.610646      151.09249    
    998000   1.0143935      18.889329      151.08419    
    999000   1.0115488      18.778572      151.16538    
   1000000   1.0241348      18.925628      151.05337    
   1001000   0.98970179     18.43654       150.84415    
   1002000   1.0016007      18.357039      150.54754    
   1003000   0.99685189     18.055011      150.49907    
   1004000   0.95719144     18.276357      150.58789    
   1005000   0.98338634     18.410376      150.56305    
   1006000   0.98406185     18.257205      150.47184    
   1007000   0.96891122     18.63361       150.37146    
   1008000   1.024191       18.163148      150.2419     
   1009000   0.99957607     18.220083      150.22999    
   1010000   1.012648       18.499942      150.1052     
   1011000   1.0078107      18.41823       149.66694    
   1012000   1.0064135      18.397009      149.43731    
   1013000   1.034166       17.950325      149.51124    
   1014000   0.95955979     17.82737       149.18761    
   1015000   0.96900895     18.386205      149.06218    
   1016000   0.99539253     18.174768      148.99096    
   1017000   0.95006385     18.060763      148.88882    
   1018000   0.9587608      17.762729      148.67516    
   1019000   0.98578584     18.300584      148.5353     
   1020000   1.0040787      18.58655       148.35373    
   1021000   0.96513173     18.161291      148.17931    
   1022000   0.98389962     18.337053      148.05437    
   1023000   0.94090452     18.269501      147.86426    
   1024000   0.97099975     18.138643      147.93855    
   1025000   1.0065661      18.595521      147.82234    
   1026000   1.0251075      17.802173      147.43687    
   1027000   1.0181311      18.678618      147.42444    
   1028000   1.001987       18.516313      147.16352    
   1029000   1.04069        18.679037      146.91433    
   1030000   1.0130713      18.082448      146.75621    
   1031000   0.99905294     18.152114      146.7357     
   1032000   0.9817762      18.14581       146.5847     
   1033000   1.047476       18.380839      146.2175     
   1034000   1.0221353      18.630225      146.34678    
   1035000   0.98475407     18.437932      146.42299    
   1036000   0.98331595     18.46545       146.33329    
   1037000   1.0406375      18.00202       146.34587    
   1038000   1.0651431      18.782898      146.17685    
   1039000   1.0036706      18.025197      146.01593    
   1040000   0.98696615     18.187657      145.85397    
   1041000   1.0476538      18.326345      145.74565    
   1042000   1.0037276      18.377208      145.61986    
   1043000   0.97832324     18.761472      145.59421    
   1044000   1.0292225      17.943097      145.51641    
   1045000   0.97694407     18.61681       145.40701    
   1046000   0.99319928     18.091212      145.26722    
   1047000   0.98001854     18.465837      145.43457    
   1048000   0.96688819     18.342019      145.46501    
   1049000   0.97508026     18.653099      145.49267    
   1050000   0.97777087     18.002958      145.47916    
   1051000   1.0642583      18.458058      145.35023    
   1052000   0.97413757     17.894951      145.14244    
   1053000   1.0624498      18.569944      145.11185    
   1054000   0.98683922     18.858974      144.98466    
   1055000   1.0059045      18.265167      144.93777    
   1056000   0.95389897     17.989742      144.86639    
   1057000   0.99658702     18.03035       145.16377    
   1058000   0.98505391     17.974697      144.96223    
   1059000   1.0133968      18.347102      144.71687    
   1060000   0.96598195     18.460548      144.88463    
   1061000   0.9763056      17.968815      144.79259    
   1062000   0.98919289     18.51555       144.78225    
   1063000   0.94298082     17.514706      144.7251     
   1064000   1.0049385      18.393558      144.87226    
   1065000   0.98225356     18.220221      144.64733    
   1066000   1.0018145      18.331611      144.60402    
   1067000   0.99756597     18.118254      144.66158    
   1068000   0.96794253     18.055437      144.61215    
   1069000   1.0265547      17.852715      144.57923    
   1070000   1.0110382      18.42809       144.58987    
   1071000   1.0187522      18.163629      144.5646     
   1072000   1.0481589      18.560044      144.63908    
   1073000   1.0104066      18.22155       144.50339    
   1074000   1.007134       17.834002      144.57779    
   1075000   0.99346947     18.313838      144.29018    
   1076000   1.0149356      17.944355      144.08485    
   1077000   1.0344519      18.265177      144.06615    
   1078000   1.0008812      18.664641      143.90305    
   1079000   0.98366054     18.171418      143.95139    
   1080000   0.99813213     18.8086        143.80391    
   1081000   1.0318748      18.504392      143.58733    
   1082000   0.969061       18.04508       143.31424    
   1083000   1.0168364      18.542952      143.28619    
   1084000   0.96679557     18.40471       143.13243    
   1085000   1.0110938      18.276192      142.99819    
   1086000   0.99466099     18.618579      143.07546    
   1087000   1.010336       18.479125      142.91795    
   1088000   0.98872312     17.750917      142.65565    
   1089000   1.0124126      18.308251      142.746      
   1090000   1.0223455      18.346716      142.97402    
   1091000   1.0428612      18.552374      142.70871    
   1092000   1.020848       18.244919      142.49022    
   1093000   0.99365431     18.679944      142.25532    
   1094000   0.99165227     18.62683       142.43526    
   1095000   1.0274581      18.156363      142.5171     
   1096000   1.0382755      18.552477      142.48657    
   1097000   1.0390036      18.177371      142.41236    
   1098000   0.99196943     18.949808      142.294      
   1099000   1.0093688      18.19897       141.96794    
   1100000   1.0373657      18.014209      141.91119    
   1101000   0.95168402     18.601652      142.05383    
   1102000   1.0049311      17.819978      142.06207    
   1103000   0.98629685     18.023346      141.93721    
   1104000   0.98906334     18.278532      141.75429    
   1105000   0.98167753     18.191177      141.59216    
   1106000   0.98715406     17.762829      141.48421    
   1107000   1.0167282      18.220149      141.31014    
   1108000   1.0062044      18.837147      141.12004    
   1109000   0.98761269     18.638207      140.88561    
   1110000   0.98288069     18.190439      140.83961    
   1111000   0.96997932     18.611969      140.90438    
   1112000   1.0155463      18.051038      140.85559    
   1113000   0.99643065     17.758675      141.04248    
   1114000   0.99556273     18.87217       140.90175    
   1115000   1.0173102      18.711979      140.79091    
   1116000   1.0083558      18.101459      141.02104    
   1117000   1.0218328      18.537899      141.02467    
   1118000   0.97239695     18.22629       141.05534    
   1119000   0.96937994     18.255924      141.03296    
   1120000   1.0110036      18.758835      140.94153    
   1121000   0.93838603     18.317862      140.91651    
   1122000   1.0105333      17.962854      140.78682    
   1123000   0.98433981     18.391468      140.61703    
   1124000   1.0124816      18.017041      140.46869    
   1125000   1.0015398      18.375242      140.27849    
   1126000   1.0051133      18.341296      140.25663    
   1127000   0.97509209     18.143694      140.20477    
   1128000   1.0038401      17.895149      140.21229    
   1129000   1.0026875      17.719065      140.24107    
   1130000   0.97925521     18.01288       140.1631     
   1131000   0.97128936     18.580487      140.12235    
   1132000   1.0177247      18.089895      140.26061    
   1133000   1.0346266      18.619318      140.28349    
   1134000   0.99741704     18.61782       140.34333    
   1135000   0.97690468     18.222186      140.26988    
   1136000   1.0147513      18.141566      140.115      
   1137000   1.0338959      18.262909      140.08427    
   1138000   1.010521       18.755227      140.0726     
   1139000   0.97030086     17.8115        140.24841    
   1140000   0.99288269     18.114604      140.26687    
   1141000   1.0342058      18.017686      140.14817    
   1142000   1.0042446      18.592777      140.27023    
   1143000   1.0148237      17.997607      140.24674    
   1144000   1.0159598      18.255192      140.33788    
   1145000   1.0060617      18.07074       140.3709     
   1146000   1.0263877      18.873446      140.21712    
   1147000   0.99998344     17.96454       139.96712    
   1148000   0.98057237     18.485253      140.03298    
   1149000   1.0452795      18.330177      139.84704    
   1150000   1.0163595      18.121988      139.66646    
   1151000   1.0381836      18.444718      139.48471    
   1152000   1.0138704      18.531952      139.57052    
   1153000   1.0377313      18.215179      139.61264    
   1154000   0.98307847     18.170979      139.60125    
   1155000   0.95948003     17.987796      139.42738    
   1156000   1.0263676      18.201581      139.43236    
   1157000   1.0040437      17.985645      139.34951    
   1158000   0.99653547     18.134953      139.4794     
   1159000   0.9770982      18.567515      139.43346    
   1160000   1.0391518      18.454276      139.53916    
   1161000   1.0260222      18.58232       139.23166    
   1162000   1.0108468      18.018022      139.27198    
   1163000   0.99486096     17.95944       139.3473     
   1164000   0.98372329     18.156855      138.99903    
   1165000   0.98313769     18.605621      139.05061    
   1166000   0.99002443     18.639707      138.7829     
   1167000   1.0067041      18.268702      138.60407    
   1168000   0.96400711     18.400364      138.50826    
   1169000   1.0143442      18.052805      138.37475    
   1170000   0.94407706     18.172398      138.28913    
   1171000   0.99589831     17.926189      138.11916    
   1172000   0.99909692     18.302027      138.26397    
   1173000   1.0092271      18.003767      138.26935    
   1174000   0.99943165     18.262929      138.21279    
   1175000   0.99184533     18.114259      137.81506    
   1176000   1.0144886      18.80129       137.57798    
   1177000   1.011223       18.28574       137.7046     
   1178000   1.0059043      18.359983      137.45255    
   1179000   1.0170308      18.403197      137.23863    
   1180000   1.0241534      18.282226      137.07217    
   1181000   1.0150153      18.219636      137.14971    
   1182000   1.0068906      18.214465      137.20978    
   1183000   1.049656       17.563318      137.22467    
   1184000   0.99166796     17.72394       137.10901    
   1185000   0.99739532     18.55389       137.05728    
   1186000   1.0058598      18.289205      136.86757    
   1187000   1.0378966      17.8008        136.6285     
   1188000   0.97494012     18.269473      136.47557    
   1189000   1.0455677      18.647668      136.44097    
   1190000   0.98431514     18.210562      136.48354    
   1191000   0.96491612     18.39224       136.09251    
   1192000   0.97904672     18.955772      135.90376    
   1193000   0.97803616     17.957746      135.682      
   1194000   0.96161613     17.788428      135.72537    
   1195000   0.97723373     18.716212      135.64187    
   1196000   0.96956427     18.636556      135.44133    
   1197000   1.0058855      18.370324      135.09454    
   1198000   1.0178729      18.725272      135.03253    
   1199000   1.0484476      18.230808      134.87393    
   1200000   1.0014659      18.125914      134.58583    
   1201000   1.0279533      18.558692      134.41551    
   1202000   0.97999876     18.504227      134.30336    
   1203000   1.0251852      18.13845       134.2014     
   1204000   0.9832009      18.257473      134.23092    
   1205000   0.94196107     18.063699      134.371      
   1206000   1.0124995      18.100344      134.43299    
   1207000   1.0028268      18.757889      134.44075    
   1208000   0.98788179     18.574046      134.36168    
   1209000   1.0305815      18.187878      134.3889     
   1210000   1.0004865      18.315611      134.10193    
   1211000   0.98876646     18.286433      134.01627    
   1212000   1.0166645      18.466367      133.72031    
   1213000   1.0241897      18.194737      133.55946    
   1214000   0.97626627     18.164505      133.42701    
   1215000   0.98174522     18.566295      133.66091    
   1216000   0.99471959     18.226187      133.53612    
   1217000   0.98958289     18.227472      133.68297    
   1218000   0.96450347     18.005874      133.66487    
   1219000   1.0051303      17.747359      133.77134    
   1220000   1.0041841      18.107014      133.68886    
   1221000   1.0301105      18.480661      133.67779    
   1222000   0.95727485     18.310778      133.42279    
   1223000   1.0030456      17.87067       133.33382    
   1224000   0.99491547     18.50629       133.31387    
   1225000   0.9911496      18.501725      133.21634    
   1226000   0.95675198     18.284625      133.11741    
   1227000   0.97371658     18.856734      132.88139    
   1228000   1.0334707      18.378189      132.63893    
   1229000   1.0192454      18.068324      132.38636    
   1230000   1.0182119      18.2126        132.10632    
   1231000   1.0046189      17.903872      132.03626    
   1232000   1.0033253      18.062946      132.13319    
   1233000   1.0015954      18.526038      131.90538    
   1234000   0.98391419     18.220601      131.79622    
   1235000   1.0372739      18.454937      131.79149    
   1236000   0.97590577     17.833773      131.995      
   1237000   0.99152634     18.197661      132.01751    
   1238000   0.96860649     18.158227      131.90082    
   1239000   1.0329239      18.119483      131.7588     
   1240000   1.0124855      18.410587      131.49362    
   1241000   0.94472727     18.045986      131.26807    
   1242000   1.0062979      18.021132      131.13007    
   1243000   0.9918839      17.993591      130.99343    
   1244000   0.96507124     17.851096      130.83537    
   1245000   1.023141       18.435232      130.83846    
   1246000   0.98151031     18.39401       130.80077    
   1247000   0.96256027     18.068764      130.63876    
   1248000   1.0200878      18.441842      130.54502    
   1249000   1.0216254      18.564057      130.32939    
   1250000   1.0018714      18.050287      130.35905    
   1251000   1.0342774      17.9444        130.5945     
   1252000   0.98616351     17.753568      130.61805    
   1253000   1.0196799      17.938454      130.84997    
   1254000   1.0303076      18.404057      130.71549    
   1255000   0.96650587     18.174937      130.72954    
   1256000   0.98548689     18.166713      130.7537     
   1257000   1.0439699      18.750527      130.69536    
   1258000   1.0274486      18.400021      130.71464    
   1259000   1.0136908      18.891788      130.41639    
   1260000   1.0260312      17.857513      130.48288    
   1261000   0.96679165     18.065647      130.3009     
   1262000   1.0189775      18.466717      130.14863    
   1263000   0.96450593     18.214565      130.09112    
   1264000   0.98899116     17.98355       130.03258    
[...]
   2762000   1.0640316      17.313648      23.966222    
   2763000   1.0090154      17.302255      23.639259    
   2764000   1.0116084      17.052384      23.614838    
   2765000   0.99916919     16.893978      23.429139    
   2766000   0.99707573     16.831166      23.49154     
   2767000   1.0251534      17.514351      23.480275    
   2768000   1.0363161      17.480048      23.538869    
   2769000   0.98999144     16.9555        23.414646    
   2770000   1.0218026      16.961426      23.374551    
   2771000   1.0630977      16.948958      23.202378    
   2772000   1.0383393      17.310041      23.111927    
   2773000   1.0305998      17.829992      23.085716    
   2774000   1.0166634      16.696388      23.223167    
   2775000   0.99249094     16.363107      23.249153    
   2776000   1.0021087      17.270248      23.120919    
   2777000   1.0214889      17.399706      22.981058    
   2778000   1.0009172      17.096536      22.662721    
   2779000   1.0384783      17.481904      22.424791    
   2780000   0.99704827     17.393746      22.477639    
   2781000   1.0414624      16.982824      22.502129    
   2782000   1.0322612      17.613762      22.41112     
   2783000   1.046126       17.118574      22.286786    
   2784000   1.007526       16.932289      22.401199    
   2785000   1.0106092      17.229141      22.343144    
   2786000   0.98553268     17.432432      22.49299     
   2787000   1.0335526      17.376515      22.405386    
   2788000   1.0149056      17.602233      22.793844    
   2789000   0.95962497     17.235644      22.900083    
   2790000   1.0040256      17.465354      23.214303    
   2791000   0.98016207     17.202487      23.098059    
   2792000   1.0277378      17.254021      23.058954    
   2793000   0.96437178     17.79754       22.896044    
   2794000   0.99556393     17.232098      22.875554    
   2795000   0.97129327     17.211852      22.861273    
   2796000   1.0099193      17.743398      22.553542    
   2797000   0.98544055     17.374132      22.596457    
   2798000   0.98618967     17.365343      22.475243    
   2799000   0.99201204     16.636988      22.386224    
   2800000   0.98007033     17.177499      22.21175     
   2801000   1.0159651      17.514024      22.114254    
   2802000   1.0098098      17.420011      22.132804    
   2803000   1.0345206      16.981483      21.911865    
   2804000   0.99690246     17.563557      22.114859    
   2805000   1.0088998      16.494968      22.19745     
   2806000   1.0000615      17.347999      22.049502    
   2807000   0.98349779     17.198468      22.068927    
   2808000   1.0275315      17.526252      21.938102    
   2809000   0.97299796     16.609253      22.152959    
   2810000   1.0425529      17.285112      21.978699    
   2811000   1.0209548      16.823442      21.791667    
   2812000   1.0294424      16.994292      21.741393    
   2813000   1.0173967      17.708194      21.656881    
   2814000   0.99167173     17.454405      21.684622    
   2815000   1.0403716      17.505483      21.60981     
   2816000   1.008302       16.607708      21.601371    
   2817000   0.99996306     17.1485        21.358484    
   2818000   0.99758927     16.574484      21.492718    
   2819000   0.99982801     17.657707      21.491296    
   2820000   1.0564822      17.882055      21.229785    
   2821000   0.95629889     17.245892      21.288823    
   2822000   0.98618253     16.893277      21.259514    
   2823000   0.99303287     17.022425      21.099396    
   2824000   0.99370359     16.789794      21.074759    
   2825000   1.0253518      18.073062      20.944293    
   2826000   0.97328504     16.964895      20.662952    
   2827000   1.0054406      17.459114      20.659643    
   2828000   1.0142197      17.124192      20.493017    
   2829000   1.0078891      17.265165      20.476334    
   2830000   1.0302343      17.338306      20.331344    
   2831000   0.98785338     17.946408      20.269817    
   2832000   1.0564286      16.898579      20.332625    
   2833000   0.98950974     17.417796      20.440239    
   2834000   1.0116088      17.062453      20.119085    
   2835000   1.013629       17.700101      20.150968    
   2836000   1.0194035      17.259383      20.153702    
   2837000   1.0134378      17.294972      20.127216    
   2838000   0.97261514     17.264062      20.229398    
   2839000   0.98371269     17.476922      19.857807    
   2840000   0.97952218     17.111496      20.026437    
   2841000   1.0111078      17.084416      20.101376    
   2842000   1.019163       16.952812      19.996476    
   2843000   0.96818187     17.161329      19.985236    
   2844000   0.98325435     16.825685      19.998297    
   2845000   1.0322286      17.326074      19.96737     
   2846000   1.0242126      17.419295      19.896013    
   2847000   1.0499797      17.228521      20.08096     
   2848000   0.9688451      16.990198      20.128925    
   2849000   1.0466544      17.830341      20.395895    
   2850000   1.0691487      17.855057      20.43142     
   2851000   0.97086122     17.225975      20.469969    
   2852000   1.0356705      17.079471      20.384062    
   2853000   1.0377961      16.955943      20.521169    
   2854000   1.0258012      17.307151      20.670923    
   2855000   1.0363507      17.795187      20.671758    
   2856000   0.98693179     17.091894      20.779699    
   2857000   1.0044993      17.538982      20.604586    
   2858000   0.98868657     17.314844      20.273168    
   2859000   1.0237876      16.990834      20.348536    
   2860000   1.0167942      17.000743      20.452647    
   2861000   0.98674891     16.97539       20.30458     
   2862000   1.0051667      17.399149      20.317708    
   2863000   0.9705109      17.501942      20.217098    
   2864000   1.0146509      17.225933      19.909032    
   2865000   1.0077717      16.749084      19.708275    
   2866000   1.0098988      17.219799      19.771458    
   2867000   1.0379668      17.244365      19.598183    
   2868000   0.99982871     17.485197      19.542637    
   2869000   0.99130352     17.224771      19.670601    
   2870000   1.0295729      17.578396      19.579815    
   2871000   0.98772199     17.495675      19.697907    
   2872000   0.98767787     17.430642      19.662811    
   2873000   0.97770396     17.2787        19.811328    
   2874000   1.0127824      16.836495      19.737234    
   2875000   1.0344309      17.595058      19.373228    
   2876000   1.0168497      17.622441      19.412408    
   2877000   1.007163       17.428813      19.251424    
   2878000   1.0250101      17.578336      19.020032    
   2879000   1.0023619      16.675122      18.971629    
   2880000   1.0501154      17.262675      18.988956    
   2881000   0.9697979      16.803101      18.783315    
   2882000   1.0186014      16.765828      18.783777    
   2883000   1.0406275      17.709508      18.93122     
   2884000   1.0444123      17.239343      18.994102    
   2885000   0.99725702     17.147258      18.955188    
   2886000   1.0043786      17.442532      18.778475    
   2887000   1.0031619      16.708032      18.703855    
   2888000   0.98646875     17.167854      18.405618    
   2889000   1.041326       17.185725      18.474257    
   2890000   0.96293892     16.320032      18.715489    
   2891000   0.96409448     17.38647       18.647549    
   2892000   1.022502       16.740312      18.747192    
   2893000   0.94228245     16.969881      18.498679    
   2894000   1.0663229      17.24874       18.155373    
   2895000   1.016882       16.980332      17.877018    
   2896000   0.96584238     17.38529       17.726634    
   2897000   0.99544455     17.554462      17.593374    
   2898000   0.96101695     17.591333      17.597027    
   2899000   1.0374242      17.641368      17.570391    
   2900000   1.033313       17.42554       17.412368    
   2901000   1.0152421      17.702734      17.254807    
   2902000   0.97688577     17.576909      17.094672    
   2903000   1.0325944      17.056164      16.999018    
   2904000   1.0298675      17.364         16.953995    
   2905000   0.93720822     16.581334      16.923913    
   2906000   1.0226944      17.050778      16.945187    
   2907000   1.0089662      16.936721      16.973558    
   2908000   0.97226063     17.120664      17.172561    
   2909000   1.0095749      17.296314      17.145897    
   2910000   1.0023575      17.295828      17.125193    
   2911000   0.98283594     16.790516      17.154693    
   2912000   1.0359105      17.872793      16.888766    
   2913000   0.99981246     17.054244      16.860984    
   2914000   1.0403474      17.095163      16.673203    
   2915000   1.0241145      16.791849      16.461894    
   2916000   1.0037025      17.55666       16.198637    
   2917000   0.98376198     17.122181      16.514888    
   2918000   1.0197336      17.152927      16.44903     
   2919000   1.0286035      17.276136      16.348112    
   2920000   1.0008241      16.628614      16.178362    
   2921000   1.0154109      17.402967      16.259734    
   2922000   1.0423297      17.613504      16.317087    
   2923000   0.96874413     17.286851      16.423986    
   2924000   1.0229354      17.392306      16.48851     
   2925000   1.0087537      17.168521      16.505853    
   2926000   0.98997832     16.784381      16.433359    
   2927000   1.0697226      17.226225      16.539059    
   2928000   1.0079205      16.875614      16.616718    
   2929000   0.99849509     16.571694      16.490625    
   2930000   0.97984578     16.667014      16.490815    
   2931000   0.98200241     17.029943      16.401638    
   2932000   0.99785203     17.222644      16.397665    
   2933000   1.0298728      17.015751      16.284251    
   2934000   0.96454908     16.807247      16.456729    
   2935000   1.0308726      16.503608      16.522557    
   2936000   1.0043891      17.271333      16.547654    
   2937000   1.0005824      17.537614      16.511724    
   2938000   0.98234452     16.8244        16.401923    
   2939000   0.98647744     16.978014      16.16911     
   2940000   0.94688018     16.738093      16.096205    
   2941000   0.98606822     17.33034       16.071819    
   2942000   0.98778931     17.312301      16.175533    
   2943000   0.97280537     17.18152       16.144106    
   2944000   0.92621013     16.741349      16.102573    
   2945000   1.012123       17.76746       16.118319    
   2946000   1.0069094      16.95984       15.897919    
   2947000   1.0003808      17.179594      15.977104    
   2948000   0.9949173      16.960146      15.973963    
   2949000   0.97048234     16.777177      16.124905    
   2950000   1.0128183      17.179929      16.040433    
   2951000   1.0110068      17.05174       15.957626    
   2952000   1.0006044      17.347577      15.778722    
   2953000   1.0107931      17.008386      15.755762    
   2954000   0.98681075     17.081173      15.593884    
   2955000   1.0248374      17.276667      15.643329    
   2956000   1.0183038      16.482222      15.486921    
   2957000   1.0157413      16.940557      15.483591    
   2958000   0.98405719     16.992937      15.447183    
   2959000   1.0315542      17.906268      15.25234     
   2960000   1.0347097      17.017866      15.18206     
   2961000   0.97143536     17.587773      15.255546    
   2962000   1.0060158      17.203582      15.18188     
   2963000   0.97554096     17.742362      15.002803    
   2964000   0.99031236     17.021702      14.803762    
   2965000   1.021863       17.374467      14.808773    
   2966000   1.0194788      17.176259      14.835045    
   2967000   0.98308605     17.014596      14.688091    
   2968000   1.0476631      17.231059      14.569207    
   2969000   1.038844       17.492979      14.348457    
   2970000   1.0504509      17.516629      14.303677    
   2971000   1.0351693      17.396993      14.251961    
   2972000   1.011113       17.162909      14.301228    
   2973000   1.0080443      16.985201      14.217284    
   2974000   1.0036749      17.152356      14.024237    
   2975000   1.0247246      18.061877      13.805196    
   2976000   1.0142707      17.465008      13.965966    
   2977000   0.99634861     17.616449      13.818938    
   2978000   1.0423684      17.032166      13.88102     
   2979000   0.97930808     17.17267       13.555671    
   2980000   1.0169838      17.735595      13.509898    
   2981000   0.97895617     16.869497      13.726885    
   2982000   1.0375931      17.701897      13.823033    
   2983000   1.0074659      16.658677      13.990266    
   2984000   0.96735256     17.186249      13.9101      
   2985000   1.0322574      17.044298      13.830287    
   2986000   1.0143677      17.020253      13.766176    
   2987000   1.0078718      16.88136       13.401127    
   2988000   0.99393428     17.60687       13.225241    
   2989000   1.0118805      17.435222      13.159678    
   2990000   1.0033996      16.97322       13.041193    
   2991000   0.98557878     17.743956      13.209783    
   2992000   1.0064651      16.832069      13.226058    
   2993000   1.0350748      17.161321      13.17604     
   2994000   1.0378137      17.810957      13.184906    
   2995000   1.0046826      16.807605      13.327361    
   2996000   0.99703758     17.17352       13.273154    
   2997000   1.0230985      17.278988      13.236364    
   2998000   0.99467858     17.919284      13.039424    
   2999000   0.99809677     17.302999      13.226404    
   3000000   0.98660763     17.232616      13.313523    
   3001000   0.96488583     17.266901      13.114839    
   3002000   1.0382618      17.282593      13.053744    
   3003000   1.0070387      17.456001      13.2106      
   3004000   0.98663886     17.133892      13.165753    
   3005000   1.0146758      16.992466      13.155231    
   3006000   0.99680653     16.685454      13.038865    
   3007000   1.011644       17.655996      12.980103    
   3008000   0.9673475      17.06772       12.905508    
   3009000   1.0063282      17.443543      12.796517    
   3010000   0.97308739     16.843626      12.381361    
   3011000   1.037055       17.288602      12.082444    
   3012000   0.99004695     17.27964       11.864089    
   3013000   0.98452232     16.744421      11.695741    
   3014000   1.005046       17.012329      11.583929    
   3015000   1.0021702      17.081171      11.286745    
   3016000   1.041512       17.151732      11.260403    
   3017000   1.0202081      17.334384      11.388645    
   3018000   1.0309532      17.348623      11.128827    
   3019000   0.97041269     17.256235      11.074985    
   3020000   0.98431588     17.084884      11.006683    
   3021000   0.98898978     17.14681       10.948166    
   3022000   0.98137799     17.479988      10.807481    
   3023000   1.044759       16.734021      10.86685     
   3024000   1.0038149      17.61031       11.015908    
   3025000   0.96047488     17.268971      10.9346      
   3026000   1.0401618      16.855615      10.841391    
   3027000   1.0282229      17.245369      10.682023    
   3028000   0.93491694     17.833556      10.546968    
   3029000   0.94039773     17.262903      10.648048    
   3030000   1.0156893      17.246431      10.501047    
   3031000   0.99661287     17.840782      10.543035    
   3032000   1.0063171      17.909778      10.423917    
   3033000   0.96092999     17.193188      10.546508    
   3034000   1.0064111      16.90126       10.199277    
   3035000   1.0372135      17.226798      9.9347309    
   3036000   0.99890706     17.266622      9.7743542    
   3037000   0.97566337     17.241478      9.4866904    
   3038000   1.0256643      17.303474      9.2996708    
   3039000   0.97928675     17.095395      9.1652871    
   3040000   0.98003032     17.226816      9.1919153    
   3041000   1.0202538      17.563829      9.0484443    
   3042000   1.0343772      17.46056       9.1058275    
   3043000   1.0308106      17.235576      9.0742617    
   3044000   0.96759761     16.963709      8.9992683    
   3045000   1.0031387      16.518605      9.0240357    
   3046000   0.99853266     17.284402      8.878541     
   3047000   1.0018206      17.784736      8.840331     
   3048000   1.0232867      16.291918      8.698308     
   3049000   0.99745548     17.146837      8.5461053    
   3050000   0.95977641     16.870789      8.6552621    
   3051000   1.0479372      16.866328      8.443066     
   3052000   1.0017273      17.558925      8.458853     
   3053000   1.0214695      16.975333      8.3291922    
   3054000   1.027843       17.007244      8.2481415    
   3055000   1.0157741      17.673377      8.1907478    
   3056000   1.0033238      16.923154      8.0787387    
   3057000   1.0054943      17.575626      8.0641326    
   3058000   1.0457158      17.332084      8.1400263    
   3059000   0.99095032     16.529623      8.0225066    
   3060000   1.0033486      17.434595      8.0149717    
   3061000   0.9799594      16.289812      7.9814002    
   3062000   0.98934513     16.544797      7.8813912    
   3063000   1.0204634      17.618843      7.6461051    
   3064000   0.97240608     17.236911      7.6862642    
   3065000   1.0120949      16.52607       7.2685387    
   3066000   1.0375421      16.84352       7.0278231    
Fix halt condition for fix-id 3 met on step 3067000 with value 6.737229519929538 (src/fix_halt.cpp:237)
   3067000   1.0431737      16.864516      6.7372295    
Loop time of 5004.6 on 2 procs for 2967000 steps with 1000 atoms

Performance: 512226.855 tau/day, 592.855 timesteps/s
124.1% CPU use with 1 MPI tasks x 2 OpenMP threads

MPI task timing breakdown:
Section |  min time  |  avg time  |  max time  |%varavg| %total
---------------------------------------------------------------
Pair    | 912.15     | 912.15     | 912.15     |   0.0 | 18.23
Bond    | 72.639     | 72.639     | 72.639     |   0.0 |  1.45
Neigh   | 3845.1     | 3845.1     | 3845.1     |   0.0 | 76.83
Comm    | 1.2451     | 1.2451     | 1.2451     |   0.0 |  0.02
Output  | 7.284      | 7.284      | 7.284      |   0.0 |  0.15
Modify  | 153.65     | 153.65     | 153.65     |   0.0 |  3.07
Other   |            | 12.5       |            |       |  0.25

Nlocal:           1000 ave        1000 max        1000 min
Histogram: 1 0 0 0 0 0 0 0 0 0
Nghost:              0 ave           0 max           0 min
Histogram: 1 0 0 0 0 0 0 0 0 0
Neighs:         215856 ave      215856 max      215856 min
Histogram: 1 0 0 0 0 0 0 0 0 0

Total # of neighbors = 215856
Ave neighs/atom = 215.856
Ave special neighs/atom = 1.998
Neighbor list builds = 28451
Dangerous builds = 0

# This simulation is done
# Move onto the next one
clear
  using 2 OpenMP thread(s) per MPI task
package omp 0
using multi-threaded neighbor list subroutines
next f
jump SELF

###
# Reference paper:
# K. Kremer and G. S. Grest
# Dynamics of entangled linear polymer melts: A molecular-dynamics simulation
# J Chem Phys 92, 5057 (1990)

##################################
# MIHIR: for branched polymers
# LJ minimum first to expand and explore, then collapse
###

###
# Looping through the various linear polymers to simulate,
# define variables to switch through
# variable f index bb100nuc0bl0bn0d30tot100 bb200nuc0bl0bn0d30tot200 bb300nuc0bl0bn0d30tot300 bb400nuc0bl0bn0d30tot400 bb500nuc0bl0bn0d30tot500 bb600nuc0bl0bn0d30tot600 bb700nuc0bl0bn0d30tot700 bb800nuc0bl0bn0d30tot800 bb900nuc0bl0bn0d30tot900 bb1000nuc0bl0bn0d30tot1000 bb1100nuc0bl0bn0d30tot1100 bb1200nuc0bl0bn0d30tot1200
variable f index bb500nuc0bl0bn0d30tot500 bb600nuc0bl0bn0d30tot600 bb700nuc0bl0bn0d30tot700 bb800nuc0bl0bn0d30tot800 bb900nuc0bl0bn0d30tot900 bb1000nuc0bl0bn0d30tot1000 bb1100nuc0bl0bn0d30tot1100 bb1200nuc0bl0bn0d30tot1200
###


###
# Box and units  (use LJ units and periodic boundaries)
###

units lj
log linear/logs2/$f.log
log linear/logs2/bb1100nuc0bl0bn0d30tot1100.log
