#atom_style bond #no stiffness
atom_style angle #with stiffness

boundary        p p p
###
# Pair interactions require lists of neighbours to be calculated
###

#neighbor 0.3 bin
neighbor 4 bin

neigh_modify every 1 delay 1 check yes
atom_modify sort 0 0
### Generate RESTART file, SPECIAL format, not a .txt file ###
### Useful if simulation crashes ###

restart 1000000 linear/restarts2/$f.restart
restart 1000000 linear/restarts2/bb1100nuc0bl0bn0d30tot1100.restart
#############################



### READ "start" data file ###

read_data linear/$f.dat
read_data linear/bb1100nuc0bl0bn0d30tot1100.dat
Reading data file ...
  orthogonal box = (-1000 -1000 -1000) to (1000 1000 1000)
  1 by 1 by 1 MPI processor grid
  reading atoms ...
  1100 atoms
  scanning bonds ...
  1 = max bonds/atom
  scanning angles ...
  1 = max angles/atom
  reading bonds ...
  1099 bonds
  reading angles ...
  1098 angles
Finding 1-2 1-3 1-4 neighbors ...
  special bond factors lj:    0        0        0       
  special bond factors coul:  0        0        0       
     2 = max # of 1-2 neighbors
     2 = max # of 1-3 neighbors
     4 = max # of 1-4 neighbors
     6 = max # of special neighbors
  special bonds CPU = 0.001 seconds
  read_data CPU = 0.082 seconds

######################

### READ "REstart" data file ###

######################



###
# Define groups (atom type 1 is group 'all')
###
group all type 1
1100 atoms in group all


###
# Dump configs - "simple dumpings"
###

###
# Dump configs + box coords
###

dump   1   all   custom   1000  linear/trjs2/$f.lammpstrj  id  x y z  ix iy iz
dump   1   all   custom   1000  linear/trjs2/bb1100nuc0bl0bn0d30tot1100.lammpstrj  id  x y z  ix iy iz
dump_modify   1   format line "%d %.5f %.5f %.5f %d %d %d"

########################################################################


###################################################################
# Stiffness term
#
# E = K * (1+cos(theta)), K>0
#
angle_style   cosine
#change this coefficient to change stiffness (e.g. 1,5,10)
angle_coeff   1 1.0
###################################################################

###################################################################
# Pair interaction between non-bonded atoms
#
#  Lennard-Jones 12-6 potential with cutoff:
#  potential E=4epsilon[ (sigma/r)^12 - (sigma/r)^6]  for r<r_cut
#
#  1.12246 = 2^(1/6) is the minimum of the potential


pair_style      lj/cut 1.12246152962189
#pair_style      lj/cut 3

#
#  pair_modify shift yes adds a constant to the potential such

#  that E(r_cut)=0. Forces remains unchanged.
#

pair_modify     shift yes

#
#  pair_coeff for lj/cut, specify 4:
#    * atom type interacting with
#    * atom type
#    * epsilon (energy units)
#    * sigma (distance units)
#

pair_coeff      1 1 1.0 1.0
###################################################################

###################################################################
# Pair interaction between non-bonded atoms
#
#  soft potential, for PUSHING apart overlapping atoms
#  potential E=A*(1 + cos(pi*r/r_c))
#
#  1.12246 = 2^(1/6) is the cut-off r_c

#pair_style     soft 1.12246152962189

#
#  pair_coeff for soft, specify 3:
#    * atom type interacting with
#    * atom type
#    * A
#
#

#pair_coeff      1 1 100.0
###################################################################

###################################################################
# Pair interaction between bonded atoms
#
# Fene potential + Lennard Jones 12-6:

#
#  E= - 0.5 K R0^2 ln[ 1- (r/R0)^2]
#     + 4epsilon[ (sigma/r)^12 - (sigma/r)^6] + epsilon
#

bond_style   fene


#
# For style fene, specify:
#   * bond type
#   * K (energy/distance^2)
#   * R0 (distance)
#   * epsilon (energy)  (LJ component)
#   * sigma (distance)  (LJ component)
#


special_bonds fene #<=== I M P O R T A N T (new command)
Finding 1-2 1-3 1-4 neighbors ...
  special bond factors lj:    0        1        1       
  special bond factors coul:  0        1        1       
     2 = max # of 1-2 neighbors
     6 = max # of special neighbors
  special bonds CPU = 0.000 seconds

bond_coeff   1   30   2   1.0   1.0


###################################################

###################################################################
# Pair interaction between bonded atoms
#
# Harmonic potential:
#
#  E= K * (R-R0)^2
#

#bond_style   harmonic

#
# For style harmonic, specify:
#   * bond type
#   * K (energy/distance^2)
#   * R0 (distance)
#

#bond_coeff   1   60.0   1.0
#bond_coeff   2   harmonic 0.1   1.0

###################################################
compute 1 all gyration
variable rog equal c_1
#compute 2 all coord/atom cutoff 1.1

#dump 2 all custom 10000 contact_number.dump id c_2


###
# Set up fixes
###
thermo_style   custom   step  temp enthalpy c_1
fix 1 all nve   ###NVE ensemble

fix 2 all   langevin   1.0 1.0 1.0  778655   ###Langevin integrator Tstart Tstop 1/friction rndseed


##### Sample thermodynamic info  (temperature, energy, pressure, etc.) #####
thermo 1000









############################################################################

###
# set timestep of integrator

timestep 0.01

###
# run integration for a number of steps
###
#run 0
#variable r equal c_1
#if "$r < 63.1" then "quit 1"

# lj potential minimum, cause molecule to explore
run 100000
Generated 0 of 0 mixed pair_coeff terms from geometric mixing rule
Last active /omp style is angle_style cosine/omp
Neighbor list info ...
  update: every = 1 steps, delay = 1 steps, check = yes
  max neighbors/atom: 2000, page size: 100000
  master list distance cutoff = 5.1224615
  ghost atom cutoff = 5.1224615
  binsize = 2.5612308, bins = 781 781 781
  1 neighbor lists, perpetual/occasional/extra = 1 0 0
  (1) pair lj/cut/omp, perpetual
      attributes: half, newton on, omp
      pair build: half/bin/newton/omp
      stencil: half/bin/3d
      bin: standard
WARNING: Communication cutoff 5.12246152962189 is shorter than a bond length based estimate of 5.455. This may lead to errors. (src/comm.cpp:723)
Per MPI rank memory allocation (min/avg/max) = 1860 | 1860 | 1860 Mbytes
   Step          Temp         Enthalpy         c_1      
         0   0              13.414597      275.00021    
      1000   1.0017696      18.921904      274.91865    
      2000   1.0105803      18.82019       274.85734    
      3000   1.0122097      19.067771      274.71451    
      4000   0.96251334     18.755873      274.62654    
      5000   1.0298576      18.696336      274.64225    
      6000   1.0275255      18.551492      274.62347    
      7000   0.95661029     18.567333      274.22639    
      8000   1.0002882      18.868506      273.78173    
      9000   1.0423401      18.907647      273.76233    
     10000   1.0342656      19.37313       273.57772    
     11000   1.0387843      18.78668       273.53332    
     12000   1.0114143      19.188498      273.42076    
     13000   1.0171769      19.24927       273.05685    
     14000   0.99920061     18.710863      273.10152    
     15000   1.0129821      18.819582      273.07159    
     16000   1.0122665      18.636896      273.12647    
     17000   0.95309119     19.314921      273.04437    
     18000   0.99704958     19.171492      272.67405    
     19000   0.96550082     18.722574      272.43544    
     20000   0.99452757     18.995657      272.22012    
     21000   0.98751799     18.949737      272.02895    
     22000   1.032381       18.849836      271.91734    
     23000   0.97906603     18.833917      271.79868    
     24000   0.98640996     18.936437      271.55687    
     25000   1.0006186      19.065661      271.19455    
     26000   0.96426158     19.20751       271.0014     
     27000   1.0225447      18.860763      270.80665    
     28000   0.98650885     18.7913        270.63628    
     29000   1.0138621      18.965571      270.57531    
     30000   1.0182334      19.321188      270.20882    
     31000   0.95845423     19.024133      270.05681    
     32000   0.99085167     19.140951      269.99974    
     33000   1.0613171      19.043191      270.06468    
     34000   1.0267088      19.388744      270.01827    
     35000   0.96319797     19.39066       269.76763    
     36000   1.0463729      18.696474      269.93536    
     37000   0.97500583     18.914624      269.64807    
     38000   0.99365028     19.353672      269.36451    
     39000   1.0190752      18.952874      269.22438    
     40000   0.96017131     18.974697      268.98812    
     41000   1.0345105      18.883679      269.11346    
     42000   1.0358667      19.301787      268.94108    
     43000   0.98380384     19.199311      268.61501    
     44000   0.97050944     18.948771      268.40154    
     45000   1.0127958      19.171227      267.99345    
     46000   1.0090033      19.149857      267.72857    
     47000   0.99258947     18.968751      267.65709    
     48000   1.0314289      19.011739      267.4398     
     49000   1.0169974      19.596742      267.23376    
     50000   1.0021315      19.029279      267.18459    
     51000   1.0036505      19.202817      267.05864    
     52000   0.99621269     19.504919      266.72588    
     53000   0.96947545     18.892872      266.80043    
     54000   0.9850552      19.262471      266.65176    
     55000   0.99530813     19.208044      266.6312     
     56000   1.0338847      19.021643      266.62696    
     57000   0.9761914      19.340471      266.4036     
     58000   1.002265       19.34175       266.40693    
     59000   0.9729434      19.078582      266.08756    
     60000   0.97025245     19.189963      265.99718    
     61000   0.99947024     19.092698      266.12563    
     62000   1.0415427      19.298296      266.08635    
     63000   1.0267594      19.31068       265.97342    
     64000   0.99937366     19.468276      265.72438    
     65000   1.0063383      19.464846      265.71108    
     66000   0.99133936     19.218399      265.60863    
     67000   0.98122121     19.260329      265.45281    
     68000   1.0150789      19.095398      265.48659    
     69000   0.99351477     19.383387      265.23915    
     70000   1.0325404      19.022417      265.13977    
     71000   1.011938       18.859571      265.07424    
     72000   0.96120694     19.327037      265.10631    
     73000   1.0059363      18.718361      264.98524    
     74000   1.0025083      19.731907      264.81944    
     75000   0.99978905     19.139162      264.58022    
     76000   1.0181503      19.5902        264.42286    
     77000   0.96649382     19.158396      264.27933    
     78000   0.99020229     19.253681      263.96018    
     79000   0.96793535     19.617244      263.80816    
     80000   1.0432694      19.039172      263.62833    
     81000   1.0349096      19.745836      263.6547     
     82000   0.99607738     19.400933      263.81264    
     83000   1.0040193      19.620024      263.74536    
     84000   1.0037276      19.391726      263.47179    
     85000   0.96708472     19.203418      263.29536    
     86000   1.0095871      19.529405      263.08199    
     87000   1.0024595      19.298031      262.9904     
     88000   0.96674761     19.225371      262.87222    
     89000   0.99680653     19.13221       262.7425     
     90000   1.0106911      19.346912      262.37367    
     91000   0.96297526     19.277076      262.12481    
     92000   0.99930734     19.167292      261.91505    
     93000   0.97098012     19.384674      261.73141    
     94000   0.98712724     19.460265      261.58863    
     95000   1.0095241      18.97283       261.49456    
     96000   1.035844       19.559698      261.35969    
     97000   1.0079379      19.433882      261.12795    
     98000   0.98499092     19.591938      260.79337    
     99000   0.99315655     19.664161      261.00683    
    100000   0.97469803     19.10473       260.84482    
Loop time of 457.202 on 2 procs for 100000 steps with 1100 atoms

Performance: 188975.399 tau/day, 218.722 timesteps/s
102.1% CPU use with 1 MPI tasks x 2 OpenMP threads

MPI task timing breakdown:
Section |  min time  |  avg time  |  max time  |%varavg| %total
---------------------------------------------------------------
Pair    | 0.94011    | 0.94011    | 0.94011    |   0.0 |  0.21
Bond    | 2.1837     | 2.1837     | 2.1837     |   0.0 |  0.48
Neigh   | 448.83     | 448.83     | 448.83     |   0.0 | 98.17
Comm    | 0.034937   | 0.034937   | 0.034937   |   0.0 |  0.01
Output  | 0.23028    | 0.23028    | 0.23028    |   0.0 |  0.05
Modify  | 4.6053     | 4.6053     | 4.6053     |   0.0 |  1.01
Other   |            | 0.3757     |            |       |  0.08

Nlocal:           1100 ave        1100 max        1100 min
Histogram: 1 0 0 0 0 0 0 0 0 0
Nghost:              0 ave           0 max           0 min
Histogram: 1 0 0 0 0 0 0 0 0 0
Neighs:           5231 ave        5231 max        5231 min
Histogram: 1 0 0 0 0 0 0 0 0 0

Total # of neighbors = 5231
Ave neighs/atom = 4.7554545
Ave special neighs/atom = 1.9981818
Neighbor list builds = 1055
Dangerous builds = 0

# Replace lj potential, now collapse
pair_style      lj/cut 3

# Cutoff simul when gyration under 5
# Variable created with equal requires v_ + 'name'
fix 3 all halt 1000 v_rog < 7

run 5000000
Generated 0 of 0 mixed pair_coeff terms from geometric mixing rule
Last active /omp style is angle_style cosine/omp
Per MPI rank memory allocation (min/avg/max) = 1860 | 1860 | 1860 Mbytes
   Step          Temp         Enthalpy         c_1      
    100000   0.97469803     18.683754      260.84482    
    101000   1.0113232      19.392932      260.84553    
    102000   0.95759595     18.812783      260.78377    
    103000   0.97104559     18.972938      260.35862    
    104000   1.0625899      18.8054        260.23148    
    105000   0.99279596     19.102917      260.08374    
    106000   0.99838605     19.25746       259.82606    
    107000   1.0352543      18.340441      259.5484     
    108000   1.009019       18.950624      259.42794    
    109000   0.9901221      18.800267      259.29915    
    110000   1.010071       19.163738      258.89218    
    111000   0.96877985     18.275991      258.66704    
    112000   1.0193287      18.927297      258.41299    
    113000   1.0186935      18.62828       258.08573    
    114000   1.006764       19.386467      257.90787    
    115000   0.99531274     19.166545      257.83406    
    116000   1.0073868      18.838404      257.55017    
    117000   1.0305231      19.264121      257.41459    
    118000   1.0542605      19.414217      257.13381    
    119000   0.99771883     19.057414      257.17401    
    120000   0.99952647     19.040463      256.83943    
    121000   0.97452214     18.969281      256.70556    
    122000   0.97875655     19.122117      256.45954    
    123000   0.97752147     19.093289      256.45107    
    124000   0.99280483     18.941613      256.34154    
    125000   0.98805132     18.588613      256.38976    
    126000   1.0193447      19.316668      256.32965    
    127000   0.99890319     18.617252      256.43957    
    128000   0.99017306     19.025362      256.4058     
    129000   0.9831006      19.031832      256.11703    
    130000   1.036233       19.191221      255.66323    
    131000   1.0287678      19.061208      255.58528    
    132000   0.9936948      18.85228       255.23986    
    133000   0.99476527     19.202985      254.90763    
    134000   0.95470645     18.855099      254.73429    
    135000   0.98771236     18.890593      254.49724    
    136000   1.0142269      19.126149      254.43001    
    137000   0.99395399     19.045372      254.23053    
    138000   1.0418685      19.442465      254.04753    
    139000   1.0019359      18.992588      253.78463    
    140000   1.0072234      18.719267      253.64763    
    141000   1.0481571      19.435069      253.63168    
    142000   0.98915898     19.214369      253.79742    
    143000   0.99654034     19.274776      253.68606    
    144000   0.97953921     18.582959      253.50137    
    145000   1.0502207      19.258742      253.22596    
    146000   0.9748015      19.243203      252.86028    
    147000   0.96713139     19.089155      252.76795    
    148000   1.0073268      19.398093      252.86024    
    149000   0.97583806     19.66355       252.67659    
    150000   1.0431748      18.903376      252.35805    
    151000   1.0005296      19.106074      252.18134    
    152000   0.99340817     19.583446      251.97649    
    153000   0.97368736     19.099323      251.71889    
    154000   1.0100295      19.051752      251.55068    
    155000   1.0347255      19.263612      251.2041     
    156000   1.007145       18.800024      251.12727    
    157000   1.0067991      18.862113      251.02791    
    158000   1.0309455      19.075254      251.06058    
    159000   0.99454891     19.442624      250.98366    
    160000   1.0071255      18.87264       250.78179    
    161000   0.98030113     18.977235      250.69611    
    162000   1.0141924      19.538726      250.43954    
    163000   1.0302832      19.019802      250.23493    
    164000   0.98235756     18.987708      250.10345    
    165000   0.99990749     19.223152      250.117      
    166000   0.98157669     18.545201      249.86749    
    167000   1.0140448      18.933369      249.67051    
    168000   0.96540094     19.239552      249.53207    
    169000   1.0385528      19.508399      249.48158    
    170000   0.97725723     18.498089      249.61572    
    171000   0.97781679     19.176712      249.55055    
    172000   1.0166647      18.781336      249.46261    
    173000   0.99737079     18.954399      249.35675    
    174000   1.007364       18.542164      249.16859    
    175000   0.9882724      19.213658      249.13982    
    176000   0.96790379     19.219955      248.83171    
    177000   1.0074091      18.965055      248.64576    
    178000   1.026401       18.944324      248.49335    
    179000   0.99676752     18.326948      248.24211    
    180000   1.0135171      19.069832      248.03838    
    181000   0.97801263     19.16096       247.83548    
    182000   1.0200056      18.994528      247.68452    
    183000   1.0175853      18.842824      247.74917    
    184000   0.99224728     18.794436      247.68679    
    185000   1.0409531      19.010454      247.49077    
    186000   0.99191101     18.703577      247.46704    
    187000   0.97192557     18.720886      247.31929    
    188000   1.0370264      19.129006      247.2298     
    189000   1.0422052      19.074565      247.2781     
    190000   0.99944449     19.07672       247.08631    
    191000   1.0086992      18.882846      247.14142    
    192000   1.0028468      18.835409      247.1455     
    193000   0.95545019     19.307507      247.09342    
    194000   1.0430173      19.242034      246.67055    
    195000   1.0124144      19.159808      246.60622    
    196000   1.0019936      18.928996      246.20622    
    197000   0.98726335     19.278393      246.06823    
    198000   1.0032311      18.952772      246.13849    
    199000   1.0129445      18.645681      245.90298    
    200000   0.97933831     19.142991      245.58561    
    201000   0.92793638     18.736151      245.48157    
    202000   1.0444758      18.736701      245.44785    
    203000   1.0419651      19.485163      245.07646    
    204000   1.0106143      19.377194      245.10413    
    205000   0.97931754     18.991192      244.8335     
    206000   1.0977957      19.608952      244.68429    
    207000   0.96583472     18.935515      244.4305     
    208000   1.031422       18.882517      244.27252    
    209000   1.0233111      19.475422      244.12295    
    210000   0.96250962     18.988329      243.97644    
    211000   1.0175788      19.044359      243.88763    
    212000   1.0016796      18.951187      243.66824    
    213000   0.98944135     18.801959      243.5416     
    214000   0.98468754     18.805731      243.23349    
    215000   1.0020482      18.650007      243.10619    
    216000   1.01343        19.233341      243.06775    
    217000   0.98118526     19.030963      242.92147    
    218000   1.0028639      18.803628      242.86016    
    219000   1.0117398      18.665267      242.7731     
    220000   1.0087462      18.46718       242.81668    
    221000   1.0148545      19.049867      242.80757    
    222000   0.95313098     19.07887       242.62216    
    223000   1.0482344      19.230694      242.63962    
    224000   1.010653       18.737154      242.48901    
    225000   0.97937027     18.577435      241.95748    
    226000   0.97803581     18.736056      241.90141    
    227000   1.0122895      19.351926      241.87369    
    228000   1.01758        18.934948      241.65367    
    229000   1.0326038      19.175936      241.51285    
    230000   1.0121815      19.443027      241.2628     
    231000   0.95246089     18.706937      241.07198    
    232000   0.9849175      18.623724      240.72955    
    233000   1.032184       19.359493      240.74117    
    234000   0.96743604     18.962658      240.69087    
    235000   1.0154172      19.032945      240.79126    
    236000   1.0247935      19.019814      240.64427    
    237000   1.0570693      19.356954      240.56406    
    238000   0.98476533     19.467332      240.2563     
    239000   0.96789752     18.992139      240.37821    
    240000   0.98056469     19.461676      240.24364    
    241000   1.0132541      19.022627      239.96685    
    242000   1.0334791      19.012973      239.80867    
    243000   0.98849547     18.834766      239.85583    
    244000   1.0279107      18.911316      239.82772    
    245000   0.98556161     18.981747      239.99538    
    246000   0.97658206     18.613106      240.00138    
    247000   1.0284887      19.027014      239.71825    
    248000   1.0133435      18.678076      239.79936    
    249000   0.99516508     19.668391      239.81502    
    250000   0.99124246     19.515629      239.71388    
    251000   1.0028925      18.988337      239.59982    
    252000   1.0132817      18.752128      239.36437    
    253000   1.019524       19.301734      239.23914    
    254000   1.0106921      18.814664      238.92459    
    255000   0.9874307      19.558756      238.70846    
    256000   1.0379223      19.482081      238.64675    
    257000   0.95488669     18.581332      238.52018    
    258000   0.99481835     18.283725      238.41758    
    259000   1.0096666      19.013608      238.31529    
    260000   1.0329636      19.308909      238.25549    
    261000   1.0137317      18.538883      238.18399    
    262000   0.99139999     18.986987      238.20225    
    263000   1.0319104      19.016681      238.09048    
    264000   1.0132167      18.4888        238.06783    
    265000   1.0268078      18.769634      237.8723     
    266000   1.0392654      19.686486      237.64003    
    267000   1.0290959      19.543829      237.45279    
    268000   1.006161       19.081725      237.2585     
    269000   1.0099822      18.499711      237.26772    
    270000   1.0315319      18.85815       237.12546    
    271000   0.99185986     19.305615      237.1159     
    272000   1.0230198      18.99163       237.07254    
    273000   1.000024       19.222232      237.07174    
    274000   0.98693594     19.073198      237.12572    
    275000   1.0282584      18.809431      236.76545    
    276000   0.99345363     18.650363      236.74931    
    277000   0.97327471     18.354677      236.50554    
    278000   1.0384471      19.355421      236.45654    
    279000   0.9696726      18.966236      236.36164    
    280000   0.99845448     18.913304      236.33863    
    281000   1.0467964      19.257944      236.32338    
    282000   0.97908399     18.999767      236.20156    
    283000   1.0082159      19.187946      236.03095    
    284000   0.99634711     18.667286      235.97021    
    285000   0.96835311     19.416628      236.00987    
    286000   1.0217424      19.228474      235.85804    
    287000   1.0156558      19.389359      235.7569     
    288000   1.025125       18.94604       235.73098    
    289000   0.9814695      19.235853      235.71389    
    290000   0.99640596     19.282494      235.77827    
    291000   1.0382893      19.349447      235.58746    
    292000   1.024893       18.965837      235.22669    
    293000   1.0056234      18.361276      235.17672    
    294000   1.0100895      18.778849      235.00102    
    295000   0.99775658     18.723549      234.94834    
    296000   1.000144       18.888253      234.7708     
    297000   1.0176645      18.974329      234.64416    
    298000   1.0283686      19.138109      234.4432     
    299000   0.97700473     19.114673      234.25302    
    300000   0.99692692     19.443414      234.20463    
    301000   0.98394577     18.84844       234.04625    
    302000   1.0435692      19.67396       233.87368    
    303000   1.0236381      18.752355      233.96151    
    304000   1.0043758      19.200723      233.81141    
    305000   0.98860028     19.049797      233.77277    
    306000   0.99996446     19.179271      233.47882    
    307000   0.98929055     19.079782      233.54305    
    308000   0.96291038     18.967992      233.5766     
    309000   0.98025137     18.635451      233.36182    
    310000   0.95746415     18.990164      233.31235    
    311000   1.024535       19.068525      233.23276    
    312000   1.0017245      18.468609      233.25106    
    313000   0.99277343     19.064858      233.18943    
    314000   1.0409105      19.297285      233.19297    
    315000   1.026116       18.683012      233.23454    
    316000   1.0358011      18.801108      233.08602    
    317000   0.98577815     18.909041      233.16042    
    318000   1.0255258      19.086961      233.35224    
    319000   1.0072492      18.834169      233.40516    
    320000   1.0567418      19.53938       233.24161    
    321000   0.97890787     19.335807      233.09718    
    322000   0.96907096     18.817662      233.16296    
    323000   1.0111311      18.55687       233.04079    
    324000   0.99649611     18.961213      233.09201    
    325000   0.98323105     19.289233      233.06676    
    326000   1.0649702      19.23291       233.0735     
    327000   1.0020298      18.931667      232.89691    
    328000   0.95996969     18.566539      232.73383    
    329000   0.96663745     19.251632      232.68392    
    330000   1.0333443      19.033878      232.62872    
    331000   0.98018699     18.877378      232.70556    
    332000   1.0165635      18.538338      232.58199    
    333000   1.0314633      18.806808      232.38742    
    334000   1.0031112      18.911299      232.20376    
    335000   1.0107797      18.960649      232.08045    
    336000   1.0190715      19.023153      231.96102    
    337000   1.0138106      18.97041       231.58681    
    338000   0.97757642     19.11813       231.30654    
    339000   0.93892503     19.040787      231.36046    
    340000   0.98344263     18.648147      231.40633    
    341000   0.99326383     18.76028       231.19526    
    342000   1.0359349      18.832357      231.04023    
    343000   1.0189708      19.341577      230.73001    
    344000   0.93811922     18.673493      230.60303    
    345000   0.97585162     18.937727      230.55692    
    346000   1.009557       18.751646      230.69603    
    347000   0.97032119     19.259839      230.53389    
    348000   0.98642417     18.633138      230.52978    
    349000   1.010802       19.114465      230.35819    
    350000   0.96918003     18.64027       230.29068    
    351000   1.0171564      18.837773      230.18236    
    352000   1.0304431      18.885598      230.04526    
    353000   0.97542617     18.574346      229.82878    
    354000   0.95985696     18.609272      229.67015    
    355000   1.0045029      18.70389       229.85611    
    356000   0.98530754     18.81275       229.67953    
    357000   1.0052717      19.138972      229.55092    
    358000   0.99208164     18.638027      229.85368    
    359000   1.0575789      19.19069       229.74649    
    360000   1.0163799      19.216715      229.67633    
    361000   1.0095859      18.716991      229.49499    
    362000   0.97134031     19.018009      229.38811    
    363000   1.0748719      19.310158      229.03368    
    364000   0.98423808     19.092056      228.94503    
    365000   1.0514746      19.063282      228.87552    
    366000   1.0184878      19.084252      228.82716    
    367000   1.003546       18.502858      228.75151    
    368000   1.0277187      18.685739      228.54836    
    369000   1.0266383      19.259962      228.53799    
    370000   0.96249136     19.158881      228.27476    
    371000   0.99153409     19.819786      228.12822    
    372000   1.0729067      18.861135      228.09938    
    373000   1.0306007      19.217546      228.01127    
    374000   1.0008752      19.127423      228.09863    
    375000   1.0165076      19.316915      227.99871    
    376000   1.0024754      18.517962      228.01212    
    377000   1.0008109      19.161402      227.85413    
    378000   1.0348163      19.041194      227.74214    
    379000   0.98638389     18.546837      227.70859    
    380000   1.0332801      18.767219      227.67887    
    381000   1.0059323      18.925015      227.30921    
    382000   0.99157534     18.634125      227.255      
    383000   1.051237       19.104145      227.27964    
    384000   1.0218533      19.389733      227.52467    
    385000   0.99944301     18.781081      227.3984     
    386000   0.9749206      18.968274      227.11224    
    387000   1.0268013      18.742631      227.10795    
    388000   1.0064997      19.149157      227.1438     
    389000   0.99402174     18.942905      227.37159    
    390000   0.99620202     18.953801      227.18334    
    391000   1.052606       19.360841      227.05837    
    392000   1.0505374      19.317353      226.74255    
    393000   0.99041456     18.92869       226.83874    
    394000   1.0143555      18.713123      226.78875    
    395000   1.0099444      18.85542       226.71567    
    396000   0.99588198     18.726693      226.63942    
    397000   0.98162239     19.31357       226.49698    
    398000   1.0324245      19.216953      226.54294    
    399000   1.0182903      18.518514      226.54627    
    400000   1.009376       19.127392      226.50193    
    401000   0.99432437     18.842412      226.2716     
    402000   0.97393551     18.585205      226.35592    
    403000   0.99772649     19.215187      226.13277    
    404000   1.0412427      19.208135      226.18522    
    405000   1.0403831      18.887251      225.97523    
    406000   1.0348434      18.716204      226.00075    
    407000   1.0277633      19.018126      225.77845    
    408000   1.0663503      18.879537      225.65279    
    409000   0.9781958      18.551708      225.55963    
    410000   0.99575434     18.4482        225.52675    
    411000   1.0187247      19.150147      225.23121    
    412000   1.0154776      18.667117      225.11158    
    413000   1.003483       18.698514      225.00609    
    414000   1.0040087      18.719726      224.72457    
    415000   1.0076777      18.833178      224.76043    
    416000   0.98011828     18.70288       224.70719    
    417000   1.0432537      19.053574      224.54201    
    418000   1.0094336      18.817473      224.52858    
    419000   1.0173329      19.426057      224.34054    
    420000   1.0271466      19.418722      224.15459    
    421000   1.0089865      19.238343      224.08814    
    422000   0.99457187     18.956523      223.91261    
    423000   0.97398213     18.965838      223.78696    
    424000   0.98073398     18.806235      223.67702    
    425000   1.0051834      19.068811      223.53543    
    426000   1.0061709      19.21275       223.3793     
    427000   1.0252157      19.056402      223.30307    
    428000   0.98081977     18.955341      223.2373     
    429000   0.95245025     19.020694      222.85439    
    430000   0.99397041     18.63973       222.55951    
    431000   1.0040633      18.850198      222.49927    
    432000   0.97478624     18.817635      222.4486     
    433000   0.96710366     18.971286      222.36345    
    434000   0.9584981      19.08711       222.2447     
    435000   1.0126196      19.022811      222.21053    
    436000   1.0420743      19.727023      221.9804     
    437000   1.0192457      18.854083      221.97956    
    438000   0.96483246     18.699296      221.9402     
    439000   0.99410443     18.71549       221.8823     
    440000   0.97054887     18.561455      221.84216    
    441000   0.99303122     18.995394      221.87585    
    442000   1.0146101      19.244386      221.80447    
    443000   1.0181003      18.701889      221.96668    
    444000   0.97999759     19.077998      222.05897    
    445000   0.97744368     19.205453      221.83759    
    446000   1.0127098      18.655461      221.54805    
    447000   0.982609       18.965526      221.34699    
    448000   1.0070203      18.917148      221.16753    
    449000   0.97166764     18.770952      221.32347    
    450000   0.99854436     19.092063      221.21933    
    451000   0.95455101     18.549567      221.08252    
    452000   1.0092617      19.300529      221.2008     
    453000   1.0383452      19.596721      221.08109    
    454000   1.0565566      18.924846      220.96065    
    455000   1.0254457      19.303478      220.74369    
    456000   0.96181952     19.031166      220.54451    
    457000   1.0065143      19.045619      220.56473    
    458000   0.98848055     19.282585      220.4194     
    459000   0.99814148     18.875377      220.17436    
    460000   1.0029399      18.711255      220.13902    
    461000   0.97513322     18.776443      219.90635    
    462000   0.99964048     18.871084      219.65581    
    463000   1.0040507      18.987177      219.5022     
    464000   0.97076616     18.694121      219.41687    
    465000   0.95840012     18.835755      219.35003    
    466000   0.98829496     18.77157       219.27365    
    467000   1.0293693      19.167229      219.23359    
    468000   0.99987499     18.907462      219.12698    
    469000   0.97116356     18.748941      219.24441    
    470000   1.0091634      18.749177      219.09654    
    471000   1.0055371      19.247869      219.02483    
    472000   0.9901096      19.217465      218.84149    
    473000   1.0077662      18.725406      218.62223    
    474000   1.0355958      18.470256      218.45622    
    475000   1.0180665      19.042205      218.46142    
    476000   0.99660112     19.004349      218.28068    
    477000   1.0164747      18.605958      217.99646    
    478000   1.0115002      18.444639      217.64968    
    479000   0.98004083     18.896559      217.55738    
    480000   1.0060194      19.11268       217.39457    
    481000   0.99347491     18.685761      217.14071    
    482000   1.0707881      19.190779      216.84915    
    483000   1.0508576      18.674696      216.91981    
    484000   0.9969722      18.825722      216.83035    
    485000   1.0294449      19.043         216.79655    
    486000   0.97644086     18.717849      216.88615    
    487000   1.0073083      18.979732      216.86082    
    488000   1.0238007      19.532153      216.79412    
    489000   0.98639682     19.028763      216.6451     
    490000   1.034344       19.446279      216.64598    
    491000   1.0219434      19.303281      216.15031    
    492000   0.98850758     18.981633      215.94797    
    493000   0.98213573     18.90741       216.04356    
    494000   0.97763134     19.549729      215.74155    
    495000   0.99721587     18.510588      215.69411    
    496000   1.0961886      19.446497      215.52378    
    497000   0.98019307     18.900578      215.28513    
    498000   1.0090285      19.61737       215.25751    
    499000   0.99150648     18.936693      214.90914    
    500000   1.0327104      19.208108      214.84422    
    501000   1.0428035      19.22337       214.73116    
    502000   1.0016394      18.998716      214.55924    
    503000   1.0049971      18.503314      214.5359     
    504000   1.0216736      18.700747      214.58871    
    505000   0.96482597     18.87509       214.71273    
    506000   0.99694116     19.252417      214.72509    
    507000   1.0323597      19.621081      214.79064    
    508000   1.0080974      19.206815      214.71982    
    509000   0.97918112     18.286288      214.71488    
    510000   1.0377008      18.706777      214.46863    
    511000   1.0322338      19.157945      214.26658    
    512000   1.0086846      19.054543      214.09       
    513000   0.97303685     18.885147      213.97194    
    514000   0.99089004     19.170074      214.02316    
    515000   1.0346792      18.996295      213.82184    
    516000   1.0202626      19.229956      213.77381    
    517000   0.97412146     18.488439      213.67134    
    518000   1.0137171      18.511295      213.56509    
    519000   0.99631554     19.009485      213.73882    
    520000   1.0071551      19.004179      213.69913    
    521000   1.0218359      19.007716      213.70224    
    522000   0.98533512     18.701758      213.56142    
    523000   1.00442        18.841672      213.69861    
    524000   1.0356762      19.034601      213.63543    
    525000   1.0056847      19.051423      213.6143     
    526000   1.0349201      19.533033      213.79759    
    527000   1.0405332      19.093492      213.75168    
    528000   1.0037636      19.027698      213.70652    
    529000   0.9733354      18.28645       213.77417    
    530000   0.99335503     18.729623      213.68655    
    531000   1.0010747      18.581474      213.72966    
    532000   0.98502858     18.319809      213.67977    
    533000   1.0166921      18.431762      213.52034    
    534000   1.0066722      19.000479      213.53425    
    535000   1.0175532      18.699099      213.59298    
    536000   1.0078118      18.851055      213.73003    
    537000   1.013837       18.517264      213.79752    
    538000   0.96675821     18.883175      213.6215     
    539000   0.96297068     18.603804      213.61733    
    540000   0.98730886     18.815782      213.71619    
    541000   0.98820851     18.441341      213.6222     
    542000   1.0221822      18.336719      213.45451    
    543000   1.0179365      18.788389      213.60297    
    544000   1.0154868      19.351855      213.66223    
    545000   1.0238347      18.746284      213.41367    
    546000   1.0043106      18.972729      213.3547     
    547000   0.98691429     18.400787      213.52303    
    548000   1.0006199      18.66709       213.42211    
    549000   1.0402471      18.560666      213.15017    
    550000   0.96464445     18.440752      212.96246    
    551000   1.0644819      19.410646      212.8681     
    552000   0.97402693     18.754879      212.84997    
    553000   1.0296468      19.358574      212.76404    
    554000   0.99564451     18.697003      212.71393    
    555000   1.0247698      19.017689      212.80199    
    556000   1.0035261      18.169724      212.84763    
    557000   1.021437       19.234989      212.86932    
    558000   0.96628081     18.764029      212.9427     
    559000   0.96973318     18.973377      212.98054    
    560000   1.0110063      18.860964      213.07806    
    561000   0.98244607     18.188569      212.94906    
    562000   1.0200704      18.876489      212.80797    
    563000   1.0124925      18.944221      212.64211    
    564000   1.0298275      18.722014      212.57793    
    565000   1.0314752      19.024741      212.50253    
    566000   1.0066357      18.757088      212.64653    
    567000   1.0185178      18.727663      212.63405    
    568000   0.98931473     18.614312      212.70525    
    569000   1.0115531      18.433419      212.65469    
    570000   1.0149636      18.57629       212.53938    
    571000   0.98337588     18.788407      212.41229    
    572000   1.0212983      18.985335      212.49222    
    573000   1.0103429      18.804448      212.32573    
    574000   1.044452       18.791024      212.25861    
    575000   1.0101681      18.943709      212.3256     
    576000   1.0164702      19.073883      212.2541     
    577000   0.99210998     19.186722      212.15001    
    578000   0.98028712     18.627462      212.00532    
    579000   0.98096636     18.912534      211.78746    
    580000   0.98396849     18.969065      211.77623    
    581000   1.0025163      19.143888      211.65323    
    582000   1.0002729      18.32796       211.38483    
    583000   1.0056902      18.546857      211.37982    
    584000   0.98129515     19.036699      211.27473    
    585000   0.99963603     19.58464       211.13134    
    586000   0.99307968     19.063022      210.93342    
    587000   1.0091003      18.618229      210.75068    
    588000   0.96283934     18.859007      210.91324    
    589000   1.0258059      18.715222      210.79632    
    590000   1.0057582      18.403358      210.79887    
    591000   1.0017538      19.264957      210.60407    
    592000   0.99602226     19.001186      210.44298    
    593000   1.0144528      18.791674      210.27787    
    594000   1.0091422      18.474892      210.48177    
    595000   0.99607039     18.996344      210.33005    
    596000   1.0581877      18.890836      210.22705    
    597000   1.0433333      19.233558      210.12496    
    598000   1.0190141      18.698673      210.23363    
    599000   1.0035211      19.492403      210.0852     
    600000   0.98715515     18.480809      209.70782    
    601000   1.0098897      18.774677      209.78941    
    602000   0.96966975     18.585514      209.51329    
    603000   0.99770989     19.009969      209.48616    
    604000   1.0407035      19.160864      209.26321    
    605000   1.0338953      18.894458      209.11997    
    606000   0.99706494     18.641993      209.09469    
    607000   1.0196832      19.336286      208.97136    
    608000   0.99077767     18.681166      208.90532    
    609000   0.98258965     18.396894      208.66746    
    610000   0.98260022     18.302892      208.49328    
    611000   1.0357671      19.211529      208.48914    
    612000   0.94598249     18.557913      208.2057     
    613000   0.96751285     18.973254      207.80748    
    614000   1.0254296      19.088937      207.67778    
    615000   1.0314567      19.001072      207.6835     
    616000   1.0109709      19.310996      207.57707    
    617000   0.99283089     18.287265      207.36306    
    618000   1.014453       19.043821      207.38986    
    619000   1.0210231      18.455839      207.37931    
    620000   1.0208018      18.545298      207.58958    
    621000   0.99437744     18.701653      207.34888    
    622000   1.0049544      18.621966      207.40915    
    623000   1.0162557      19.182309      207.38107    
    624000   0.99398312     18.649184      207.6098     
    625000   0.99965558     18.476428      207.42279    
    626000   0.99602395     18.639389      207.3248     
    627000   0.99978853     18.520836      207.39255    
    628000   0.99853855     18.845781      207.34538    
    629000   0.97802681     19.439335      207.33617    
    630000   0.98539697     19.201074      207.18432    
    631000   0.97172763     18.196701      206.97729    
    632000   0.99096436     18.96099       206.97819    
    633000   1.0022615      18.64669       207.0441     
    634000   0.97684945     18.96374       207.10678    
    635000   1.0140795      19.109923      206.90409    
    636000   1.0113629      18.804208      206.61915    
    637000   0.97515617     18.266202      206.64927    
    638000   0.99263569     19.067888      206.72412    
    639000   0.97766388     18.877901      206.591      
    640000   0.99574787     18.659583      206.49873    
    641000   0.95616402     18.394221      206.61731    
    642000   1.0024798      18.346667      206.39453    
    643000   1.011338       18.368848      206.25465    
    644000   1.0217744      18.710735      206.13133    
    645000   1.0108709      18.960875      206.18469    
    646000   1.0220848      18.441195      206.27986    
    647000   1.0139554      18.715164      206.04202    
    648000   0.98251176     18.653116      205.77337    
    649000   1.0320864      18.377369      205.60849    
    650000   0.99417715     18.784823      205.42754    
    651000   0.98935188     18.591973      205.56113    
    652000   1.0025753      18.941108      205.29554    
    653000   1.0538585      18.66584       205.09831    
    654000   0.99132023     18.541701      204.80067    
    655000   1.052916       18.560774      204.7945     
    656000   1.0083136      18.779539      204.69266    
    657000   0.99372024     19.06841       204.74661    
    658000   0.99806659     18.50437       204.77584    
    659000   1.0137858      19.014396      204.98472    
    660000   1.009153       18.55089       204.85466    
    661000   1.0100038      18.835068      204.80645    
    662000   1.0213076      19.033675      204.64532    
    663000   1.0080961      18.682401      204.54334    
    664000   1.0018501      18.727231      204.58114    
    665000   0.98172301     18.785066      204.45096    
    666000   1.0118178      18.875239      204.4382     
    667000   1.0187016      18.88685       204.40204    
    668000   1.0128738      18.42306       204.47024    
    669000   1.0241879      18.325361      204.45112    
    670000   0.99913733     18.992409      204.45102    
    671000   1.0189856      18.484132      204.40075    
    672000   1.0150503      18.417942      204.32592    
    673000   1.034533       19.320116      204.25071    
    674000   0.96490627     18.703543      204.27141    
    675000   0.99726316     18.917689      204.20385    
    676000   1.0576165      18.924777      204.10133    
    677000   1.0275893      18.761292      204.02311    
    678000   1.0040956      18.659742      204.26432    
    679000   1.0478743      18.684005      204.49351    
    680000   1.0462002      18.601625      204.37573    
    681000   1.0375619      18.72499       204.20548    
    682000   1.0079206      18.596433      204.07154    
    683000   1.0349255      19.005698      204.02095    
    684000   0.97166011     18.641614      203.85641    
    685000   1.0085949      19.032025      203.8179     
    686000   0.99108487     18.787503      203.75226    
    687000   0.99680109     18.752689      203.75091    
    688000   0.98046067     18.622171      203.48723    
    689000   1.0261719      18.482436      203.51118    
    690000   0.95455568     18.825268      203.27122    
    691000   1.0201897      18.422057      203.32908    
    692000   0.99357169     18.696991      203.35145    
    693000   1.0123743      18.970663      203.27519    
    694000   1.0039707      18.515998      203.23885    
    695000   1.0147926      19.037173      203.11633    
    696000   1.0180965      18.835782      203.18346    
    697000   0.9767284      19.512319      203.0383     
    698000   0.98712093     18.902478      203.13332    
    699000   1.0015473      18.644623      203.07826    
    700000   1.014391       18.45309       203.00836    
    701000   1.0038857      18.728882      202.98094    
    702000   0.98367735     18.377385      203.02873    
    703000   1.047497       18.169959      202.89743    
    704000   0.98735337     18.57907       202.93923    
    705000   0.96519816     18.570522      202.78529    
    706000   1.0259235      18.770205      202.90796    
    707000   1.0263689      18.327019      202.96757    
    708000   0.99861786     18.633553      202.99027    
    709000   0.9850059      18.709396      202.63939    
    710000   1.0273598      18.846101      202.48151    
    711000   0.99503781     18.677575      202.31814    
    712000   1.002998       18.940814      202.37988    
    713000   0.98551048     18.49669       202.46696    
    714000   1.0021702      18.76478       202.47738    
    715000   1.0466642      19.390754      202.28056    
    716000   1.0258661      18.382685      202.27505    
    717000   1.0158145      18.619493      201.93722    
    718000   0.95528502     18.617296      201.96772    
    719000   0.97551209     18.634302      201.84748    
    720000   1.0375179      18.710081      201.89301    
    721000   0.98972813     19.217526      201.62466    
    722000   1.0226573      18.913596      201.61233    
    723000   0.99444978     19.078685      201.30945    
    724000   0.98901176     18.595454      201.17463    
    725000   0.99805134     18.716158      201.09333    
    726000   1.0257298      18.326923      200.96304    
    727000   0.98202828     18.558217      200.58347    
    728000   1.0106953      18.82084       200.4651     
    729000   1.019392       18.614346      200.48584    
    730000   0.99541833     18.758054      200.39558    
    731000   0.99083126     18.421882      200.10545    
    732000   0.99690695     19.199957      199.89373    
    733000   1.0016404      18.397976      199.93599    
    734000   1.0140018      18.476198      199.86036    
    735000   1.0071228      18.613368      199.8916     
    736000   1.0201436      19.132218      199.66506    
    737000   1.0228564      18.503061      199.50544    
    738000   0.99639113     18.387454      199.20036    
    739000   0.93021106     18.342053      199.08487    
    740000   0.9867782      18.752406      199.05664    
    741000   1.007231       18.773997      198.98118    
    742000   1.0039265      19.155818      199.01396    
    743000   0.97088558     18.692649      199.00711    
    744000   0.96457751     18.535947      199.05295    
    745000   0.98437384     18.631986      199.02763    
    746000   1.009167       18.925045      198.89979    
    747000   0.94270284     18.428641      199.10736    
    748000   1.0274863      18.703541      199.15717    
    749000   0.96628296     19.212751      199.09746    
    750000   1.0558205      18.241257      198.92667    
    751000   0.97524838     18.557363      198.79325    
    752000   0.99202184     18.25556       198.727      
    753000   1.0042213      18.767675      198.43211    
    754000   0.99826892     18.198137      198.11246    
    755000   0.96894005     18.505224      198.06602    
    756000   0.99937806     18.905816      197.82203    
    757000   0.99397022     18.605848      197.77401    
    758000   1.0091283      18.625735      197.54413    
    759000   1.0099585      18.900874      197.50067    
    760000   0.99007459     18.43337       197.32048    
    761000   0.99943034     18.788312      196.93488    
    762000   1.0192033      19.161295      196.744      
    763000   1.0307165      18.767875      196.73554    
    764000   1.0184916      18.983288      196.74175    
    765000   1.0171838      18.665979      196.62737    
    766000   0.99746596     18.535417      196.41391    
    767000   0.96692343     18.50503       196.56088    
    768000   0.96022582     18.879665      196.5544     
    769000   0.98253523     18.665633      196.50347    
    770000   1.0013572      18.861759      196.17488    
    771000   1.0069907      19.105323      196.0969     
    772000   1.0415117      18.885594      195.91075    
    773000   0.97942606     18.576148      195.92597    
    774000   0.98081232     18.200115      195.95616    
    775000   0.99444918     18.797657      195.92349    
    776000   1.0207194      18.735046      195.97778    
    777000   1.0407025      19.000804      195.95631    
    778000   0.97350509     19.18814       195.83024    
    779000   0.95207243     19.053428      195.60823    
    780000   1.0147531      18.394614      195.55033    
    781000   0.98643059     18.643857      195.44916    
    782000   0.98748573     18.955006      195.42348    
    783000   1.0112423      19.084408      195.23156    
    784000   0.97149264     18.260133      195.08855    
    785000   1.039469       18.8787        195.0595     
    786000   1.0116461      19.105662      194.86247    
    787000   1.0052565      18.471949      194.93534    
    788000   1.0281752      18.690207      194.85779    
    789000   1.011498       19.04256       194.69711    
    790000   0.99495779     18.753223      194.5155     
    791000   1.0041038      18.803628      194.62808    
    792000   1.0105555      18.737498      194.45385    
    793000   0.98683326     18.474106      194.08592    
    794000   1.0207045      19.047774      193.91487    
    795000   1.009219       19.322503      193.95658    
    796000   0.99605357     18.717067      193.62405    
    797000   0.98248928     18.502294      193.74644    
    798000   1.0260479      18.369946      193.56121    
    799000   1.0454197      18.549078      193.5153     
    800000   0.963188       18.773014      193.54814    
    801000   1.0058733      18.762977      193.65221    
    802000   1.05434        19.417249      193.54218    
    803000   0.99921926     19.078339      193.36991    
    804000   0.9794892      18.716952      193.36062    
    805000   1.0114761      18.622674      193.17367    
    806000   1.0314987      19.175945      193.14442    
    807000   1.0396121      18.77275       193.0131     
    808000   0.97539447     18.158957      193.11342    
    809000   1.0277338      18.649815      192.92141    
    810000   0.98779351     18.282982      192.87555    
    811000   1.0027046      18.884523      192.79871    
    812000   0.96540809     18.351684      192.68955    
    813000   0.98171078     19.055149      192.57821    
    814000   1.0125414      18.855741      192.33574    
    815000   1.0364842      18.869549      192.30295    
    816000   0.98590521     18.678053      192.13743    
    817000   1.0145909      19.002558      192.00514    
    818000   1.0132053      18.831508      191.93486    
    819000   1.0195929      18.76653       191.81797    
    820000   0.99875546     18.874684      191.77549    
    821000   1.0056804      19.02101       191.72142    
    822000   0.99683816     18.600064      191.74868    
    823000   0.98841721     18.332712      191.50872    
    824000   1.0053812      18.998947      191.6268     
    825000   0.99132963     18.417325      191.53124    
    826000   1.0204253      18.704785      191.42413    
    827000   1.0157994      18.608397      191.59948    
    828000   0.99930388     19.442976      191.52107    
    829000   0.98778413     19.117081      191.5868     
    830000   1.0507961      18.94534       191.30185    
    831000   1.0135536      18.633409      191.19876    
    832000   0.99245421     18.759664      191.10827    
    833000   1.0195104      18.680838      191.2662     
    834000   0.97601764     18.360149      191.2701     
    835000   0.99328982     18.782177      191.18752    
    836000   1.0085983      18.664637      191.19285    
    837000   0.95161858     18.327767      191.29296    
    838000   1.0138162      18.825949      191.14562    
    839000   1.0119244      19.147447      191.12455    
    840000   0.98798368     18.550246      191.2333     
    841000   0.96331863     18.1649        190.98682    
    842000   0.9731018      18.370074      190.78266    
    843000   0.96277068     18.501178      190.6447     
    844000   0.99330711     18.44711       190.55266    
    845000   0.97455157     18.831149      190.35315    
    846000   0.9783159      18.64938       190.21932    
    847000   0.9874085      18.666622      190.0974     
    848000   1.0177879      18.806425      190.05186    
    849000   0.95965804     18.098075      190.01319    
    850000   1.0027564      18.526867      189.99893    
    851000   1.0108695      18.387785      189.84541    
    852000   0.96342744     18.128774      189.78254    
    853000   0.96600504     18.194181      189.79944    
    854000   0.99060967     18.328058      189.70827    
    855000   1.0063539      18.844446      189.70943    
    856000   1.016119       18.920587      189.84522    
    857000   1.0120219      18.992514      189.75536    
    858000   1.028134       18.779598      189.65346    
    859000   0.97721142     18.129163      189.58539    
    860000   1.0139202      19.012355      189.51166    
    861000   1.0224338      19.145828      189.3876     
    862000   0.9734188      19.120309      189.39611    
    863000   1.0011311      18.992144      189.45671    
    864000   1.0559108      18.546538      189.29564    
    865000   1.0265959      18.968191      189.1196     
    866000   1.0219021      18.379199      189.19765    
    867000   1.0065602      18.415869      189.06862    
    868000   0.99716472     18.840426      189.09578    
    869000   0.98452893     18.580498      189.15907    
    870000   0.98498752     18.817417      189.12962    
    871000   0.99292793     18.826774      189.06329    
    872000   1.0000678      18.011346      189.03128    
    873000   1.0090149      18.176333      188.98735    
    874000   1.000564       18.448279      189.03159    
    875000   0.97221469     18.822604      189.29569    
    876000   1.0485861      18.766769      189.44868    
    877000   1.0130805      19.252649      189.23361    
    878000   0.95111198     18.439335      189.1858     
    879000   0.98405293     19.278026      189.07347    
    880000   1.0626566      18.686364      189.05727    
    881000   1.0259745      18.572197      188.97614    
    882000   0.97702538     18.745258      189.0605     
    883000   1.0024734      18.769722      189.09417    
    884000   1.0135342      18.328062      188.92972    
    885000   0.98774099     18.661846      188.98595    
    886000   0.97904162     18.762674      188.88347    
    887000   0.95312084     18.963739      188.92476    
    888000   1.0063592      18.476522      188.95176    
    889000   1.005778       18.11013       188.96558    
    890000   0.97431854     18.492268      188.82394    
    891000   0.98608544     18.85598       188.60582    
    892000   1.0084789      18.740814      188.44935    
    893000   1.0014241      18.705965      188.30169    
    894000   1.0184164      18.261015      188.30148    
    895000   0.96416743     18.668708      188.0373     
    896000   1.0049112      19.104666      187.91591    
    897000   0.99454379     18.840986      187.8419     
    898000   1.0391111      18.734325      187.8677     
    899000   1.0144571      18.5699        187.80949    
    900000   1.0106259      18.459636      187.92301    
    901000   1.0387319      18.721291      187.86578    
    902000   1.02678        18.282866      187.9055     
    903000   0.9934902      18.372745      187.79469    
    904000   1.0020822      18.092646      188.05207    
    905000   1.0537527      18.445986      187.9716     
    906000   0.94840856     18.59684       187.79637    
    907000   1.0229307      18.895007      187.89078    
    908000   1.0053272      18.801227      187.96837    
    909000   0.96963583     18.508954      187.93964    
    910000   0.98784936     18.767825      187.96297    
    911000   0.98169466     18.909812      187.90165    
    912000   0.94368201     18.543691      187.99422    
    913000   0.99718784     18.928139      187.90235    
    914000   0.99619228     18.995825      187.72372    
    915000   0.99604153     18.597382      187.55683    
    916000   1.0416956      18.137998      187.427      
    917000   1.0321621      18.882303      187.1626     
    918000   0.98962587     18.522727      186.66444    
    919000   0.96452031     18.098029      186.50018    
    920000   0.97242658     18.586444      186.36966    
    921000   1.0035606      18.592643      186.2787     
    922000   1.0117345      18.43248       185.99953    
    923000   1.0060879      18.511405      185.82895    
    924000   0.97721548     18.786102      185.78952    
    925000   0.96524914     18.625252      185.82887    
    926000   1.0075876      18.38418       185.86204    
    927000   1.039895       18.677008      185.77673    
    928000   1.0607292      18.453192      185.6695     
    929000   1.0243867      18.608399      185.6316     
    930000   0.94598378     18.257372      185.61531    
    931000   1.0627075      19.303248      185.40842    
    932000   0.99031523     19.034155      185.23389    
    933000   1.0160015      18.322664      185.33265    
    934000   1.0217814      18.816175      185.28089    
    935000   0.97844958     18.634715      185.29819    
    936000   0.96046506     18.576283      185.02903    
    937000   1.0012382      18.256627      184.82558    
    938000   1.0326332      18.34469       184.71254    
    939000   0.97712008     18.102096      184.53916    
    940000   1.0257236      18.57405       184.58526    
    941000   1.0041779      18.249683      184.63604    
    942000   0.99732231     18.797553      184.61484    
    943000   1.0240397      18.387339      184.43552    
    944000   0.97808113     18.794058      184.29044    
    945000   0.96217285     18.508885      184.08127    
    946000   1.0291951      18.539753      183.92551    
    947000   0.99454725     18.604477      183.7659     
    948000   0.95498839     18.542304      183.84505    
    949000   1.0557044      18.493189      183.65129    
    950000   1.0122776      18.632304      183.45046    
    951000   0.99682945     18.795172      183.05524    
    952000   1.0150739      18.439101      182.9138     
    953000   0.98581111     18.259335      182.68908    
    954000   1.0141939      18.743156      182.63304    
    955000   1.0095213      18.820616      182.40718    
    956000   0.99052383     17.996609      182.26794    
    957000   1.0153895      18.984832      182.31856    
    958000   1.0070645      17.758579      182.2849     
    959000   1.0007602      18.417855      182.12697    
    960000   1.0058562      18.742262      182.19796    
    961000   0.99596919     18.70709       182.0995     
    962000   0.99510858     18.0189        181.81186    
    963000   1.0483827      19.225337      181.77445    
    964000   1.0468041      19.090296      181.59347    
    965000   0.97683401     18.488943      181.51911    
    966000   1.0093798      18.613173      181.51756    
    967000   1.0115872      17.984383      181.46369    
    968000   0.99420534     19.014703      181.18049    
    969000   0.9978189      18.860658      181.16997    
    970000   1.0352784      18.338522      180.96317    
    971000   1.0289092      18.454388      181.14697    
    972000   0.95474761     18.347634      181.15245    
    973000   1.0334737      18.418593      181.12652    
    974000   1.0005966      18.366279      180.9355     
    975000   0.98463734     18.592802      180.68817    
    976000   1.0201023      18.761616      180.52801    
    977000   1.0152519      18.679294      180.25731    
    978000   1.0455491      18.891456      180.31069    
    979000   1.0039148      18.857994      180.20217    
    980000   0.97837588     18.608999      180.1528     
    981000   1.0355544      18.879031      179.96806    
    982000   1.0182584      18.625047      179.93518    
    983000   0.97388736     18.476997      179.64541    
    984000   0.98190506     18.109154      179.51388    
    985000   1.008701       18.434016      179.4456     
    986000   0.99209766     18.663966      179.28288    
    987000   1.0062981      18.650239      179.3742     
    988000   1.0190723      18.462739      179.2548     
    989000   1.0161681      18.447929      179.26035    
    990000   1.0135758      18.69912       179.00048    
    991000   1.0029364      18.424687      178.81723    
    992000   0.98792603     18.821098      178.7739     
    993000   1.0111492      18.288688      178.51752    
    994000   0.97228771     18.031903      178.51239    
    995000   0.98546458     18.043776      178.47972    
    996000   0.96907164     18.29265       178.34848    
    997000   1.002332       18.270807      178.27625    
    998000   0.96391472     18.817295      178.05878    
    999000   1.0181055      18.330541      177.98637    
   1000000   1.0495165      18.365323      178.079      
   1001000   0.99311809     18.731624      178.29013    
   1002000   0.99967363     18.392732      178.22251    
   1003000   1.0544245      19.028544      178.1577     
   1004000   1.0417131      19.067623      177.96042    
   1005000   0.99462653     18.894572      178.06077    
   1006000   1.0293509      18.581001      177.94341    
   1007000   1.0100181      18.376777      177.89796    
   1008000   1.0127548      18.869968      177.63277    
   1009000   0.98127756     18.405015      177.62862    
   1010000   1.0461766      19.408147      177.45454    
   1011000   0.97128425     18.641096      177.25474    
   1012000   0.96965665     19.070497      177.5242     
   1013000   0.97144755     18.71063       177.27037    
   1014000   1.0012705      18.683118      177.34947    
   1015000   1.0116288      18.951726      177.33936    
   1016000   0.96438153     18.612221      177.06526    
   1017000   0.97540761     18.374656      177.09541    
   1018000   0.96901036     18.331648      176.69976    
   1019000   1.0258997      18.401133      176.56156    
   1020000   0.99329926     18.479015      176.42491    
   1021000   1.0289292      18.268564      176.33737    
   1022000   0.98063522     18.419244      176.04357    
   1023000   1.0164273      18.331484      175.77331    
   1024000   0.99524295     18.089336      175.66925    
   1025000   1.0064567      18.210047      175.65504    
   1026000   1.0167712      18.427935      175.38659    
   1027000   1.0030528      19.001482      175.24018    
   1028000   0.98890757     18.384468      175.16585    
   1029000   1.003638       18.986377      175.0354     
   1030000   1.053964       18.20426       174.88234    
   1031000   0.98986994     17.927814      174.64804    
   1032000   0.99141073     18.707249      174.6079     
   1033000   0.980387       18.820969      174.57866    
   1034000   0.97035525     18.341641      174.65028    
   1035000   1.0532965      19.306267      174.63628    
   1036000   0.99116326     18.889501      174.74349    
   1037000   0.93550671     18.396547      174.89821    
   1038000   1.0496971      18.31168       174.73294    
   1039000   1.0390068      19.027728      174.63135    
   1040000   0.93940629     18.448374      174.59252    
   1041000   0.97266783     18.596132      174.53916    
   1042000   1.0258105      18.817301      174.58529    
   1043000   0.97720748     18.45694       174.6503     
   1044000   0.9893891      18.486755      174.73923    
   1045000   1.053973       18.4528        174.88524    
   1046000   1.0416242      19.005653      174.93694    
   1047000   1.0455119      18.825844      174.79261    
   1048000   0.97445083     17.97989       174.55861    
   1049000   0.98681924     18.511934      174.45557    
   1050000   0.998941       18.524393      174.43152    
   1051000   0.95902099     18.963481      174.40759    
   1052000   0.97570974     18.909242      174.19877    
   1053000   0.99157204     18.153326      174.20799    
   1054000   1.0323738      18.818659      174.16519    
   1055000   1.0286659      18.571677      173.8764     
   1056000   1.0167176      18.439029      173.76964    
   1057000   0.98471051     18.635349      173.95355    
   1058000   1.0096233      18.524855      173.83829    
   1059000   1.0006062      18.584615      173.69512    
   1060000   0.99063045     18.960026      173.89628    
   1061000   1.0145365      18.411955      173.73941    
   1062000   0.99087525     18.377563      173.69847    
   1063000   0.94260358     18.530654      173.69829    
   1064000   1.0048339      18.667986      173.58528    
   1065000   0.94936433     18.677751      173.59774    
   1066000   1.0048975      18.64326       173.43754    
   1067000   1.0194668      18.861828      173.34718    
   1068000   1.0220899      18.497835      173.44762    
   1069000   1.0110484      18.547341      173.477      
   1070000   0.98309513     18.230485      173.28828    
   1071000   1.0534016      18.755431      173.21454    
   1072000   1.0207746      18.671894      173.0854     
   1073000   0.99466644     18.524715      172.82956    
   1074000   0.99659276     18.42849       172.82884    
   1075000   0.9668868      18.813899      172.83663    
   1076000   1.0140851      18.625094      172.92261    
   1077000   0.99251253     18.40352       172.8143     
   1078000   0.99187595     18.079147      172.68425    
   1079000   1.0330043      18.567126      172.82406    
   1080000   1.0041664      19.113777      172.61517    
   1081000   1.016449       18.077883      172.32891    
   1082000   1.0209333      18.818897      172.39353    
   1083000   1.0083491      18.545184      172.47208    
   1084000   0.95087943     17.881641      172.36676    
   1085000   0.9956267      18.227963      172.49876    
   1086000   1.0069669      18.616811      172.38862    
   1087000   1.0049362      18.22366       172.37945    
   1088000   0.9818896      18.295486      172.28931    
   1089000   0.98794543     18.473917      172.36287    
   1090000   1.0224114      18.630923      172.43833    
   1091000   0.98890646     18.267263      172.33885    
   1092000   1.0087485      18.653123      172.38248    
   1093000   1.0109674      18.718771      172.25362    
   1094000   1.0162122      19.326714      172.31487    
   1095000   1.0031554      18.422678      172.22344    
   1096000   1.0168898      18.40513       172.24271    
   1097000   1.0091166      18.370842      172.21743    
   1098000   1.0196215      18.575645      171.99703    
   1099000   0.99403437     18.576705      172.00261    
   1100000   1.0301934      18.425339      171.92827    
   1101000   0.94814442     17.769028      172.04315    
   1102000   1.0093364      18.366221      172.0193     
   1103000   0.98607512     18.630178      172.06401    
   1104000   1.0187872      18.051941      172.01746    
   1105000   1.0303082      18.67489       172.0071     
   1106000   1.0139723      18.367579      172.01969    
   1107000   1.0531768      18.30615       172.12768    
   1108000   1.0492014      18.091556      172.15509    
   1109000   0.98769899     18.476993      172.11522    
   1110000   0.98841554     18.669853      172.15105    
   1111000   1.0040774      18.515002      172.04619    
   1112000   0.97005963     18.460122      172.03333    
   1113000   0.97981216     18.362126      171.95749    
   1114000   1.0298767      18.290341      171.76942    
   1115000   1.0115112      18.506232      171.63933    
   1116000   1.0113317      18.310197      171.61624    
   1117000   0.96939232     18.180309      171.50608    
   1118000   1.0032185      18.246676      171.53998    
   1119000   1.0064807      18.037755      171.60918    
   1120000   1.0199571      18.65204       171.57977    
   1121000   0.98814069     18.013642      171.55237    
   1122000   0.99779794     18.061252      171.56092    
   1123000   1.0107956      18.28658       171.49808    
   1124000   1.0136822      18.594044      171.23635    
   1125000   0.98971975     19.041911      171.01773    
   1126000   1.0246245      18.809693      170.86367    
   1127000   0.99166572     19.221981      170.88405    
   1128000   1.0344383      18.162113      170.65451    
   1129000   1.0612009      18.92582       170.44111    
   1130000   0.94984674     18.305218      170.25252    
   1131000   1.0209577      18.834829      170.02239    
   1132000   0.98447896     18.42224       169.98821    
   1133000   1.032499       18.509953      170.00293    
   1134000   1.0226093      18.54415       169.96645    
   1135000   1.0116519      19.020623      170.18646    
   1136000   1.018397       18.88046       170.2409     
   1137000   0.94848009     18.71605       170.23341    
   1138000   0.93761745     18.293929      170.07645    
   1139000   0.97673935     18.431698      169.78012    
   1140000   0.99621656     18.841786      169.66195    
   1141000   1.0058684      18.57683       169.65388    
   1142000   1.0341013      18.517535      169.61125    
   1143000   0.99104659     18.17292       169.35694    
   1144000   1.0034358      18.452657      169.17808    
   1145000   0.99238695     17.998451      169.12567    
   1146000   1.0302399      18.815115      168.86258    
   1147000   0.96912334     17.707156      168.99633    
   1148000   0.9849431      18.235728      168.92322    
   1149000   1.0196373      18.650034      168.83593    
   1150000   0.99679943     18.281478      168.63357    
   1151000   0.98670651     18.482021      168.81745    
   1152000   0.98865874     18.566042      168.70915    
   1153000   1.0054503      18.564316      168.57411    
   1154000   1.018275       18.206885      168.65558    
   1155000   1.001833       18.257925      168.26992    
   1156000   0.96457962     18.402366      168.12373    
   1157000   0.98016811     18.286818      168.11537    
   1158000   0.97748702     18.172487      168.0157     
   1159000   0.97158804     18.412503      167.95926    
   1160000   0.99427907     18.399365      167.81205    
   1161000   1.0125295      18.735308      167.7716     
   1162000   1.0392033      18.450461      167.7666     
   1163000   0.9892622      18.559853      167.71307    
   1164000   0.99948345     18.138563      167.47953    
   1165000   1.0067619      18.745035      167.52166    
   1166000   1.011423       18.52275       167.62566    
   1167000   1.0318814      18.859876      167.52597    
   1168000   1.0179983      18.425206      167.39932    
   1169000   0.97835038     19.166079      167.33878    
   1170000   1.0038685      18.585085      167.06673    
   1171000   0.9841138      18.514316      167.02085    
   1172000   1.0333463      18.67146       166.85516    
   1173000   0.9970207      18.424392      166.68562    
   1174000   0.97658887     18.333026      166.52667    
   1175000   1.0190606      18.483789      166.42206    
   1176000   0.98968641     18.278944      166.10784    
   1177000   1.0111462      18.553764      165.83234    
   1178000   0.97559189     18.658662      165.72344    
   1179000   1.0306398      18.917028      165.86485    
   1180000   0.97671074     17.891218      165.91706    
   1181000   0.96480654     18.293452      165.70875    
   1182000   0.97285831     18.494008      165.56575    
   1183000   0.99910948     18.103763      165.45749    
   1184000   0.9898047      17.890603      165.51192    
   1185000   1.0090417      18.472414      165.44037    
   1186000   1.0019084      18.422385      165.2653     
   1187000   1.0043441      18.300738      165.04754    
   1188000   1.0187462      18.554426      164.88906    
   1189000   1.0335272      18.94087       164.88617    
   1190000   1.0225649      17.729563      164.74035    
   1191000   1.0330013      18.560728      164.75399    
   1192000   0.98056412     18.211955      164.70277    
   1193000   1.0049699      18.624696      164.73524    
   1194000   0.9732112      18.304148      164.69059    
   1195000   1.0407014      18.628103      164.63636    
   1196000   0.99926607     18.222926      164.81386    
   1197000   1.0059251      19.083003      164.83266    
   1198000   1.0195846      18.182226      164.77936    
   1199000   0.97733114     18.07558       164.51377    
   1200000   1.0764787      18.518306      164.23984    
   1201000   1.0469617      18.168066      164.22543    
   1202000   0.99774394     18.541247      164.12035    
   1203000   0.9981714      18.892073      164.12105    
   1204000   1.0041391      18.575805      164.18055    
   1205000   1.0243729      18.787498      163.8197     
   1206000   0.99425998     18.347501      163.668      
   1207000   1.0376726      18.381586      163.60643    
   1208000   0.99590215     18.753127      163.29974    
   1209000   1.015285       17.985011      163.33667    
   1210000   1.0021782      18.477884      163.47016    
   1211000   1.0165101      18.598545      163.13757    
   1212000   1.0377991      18.413784      163.05243    
   1213000   1.0084291      18.637447      163.04349    
   1214000   1.0187253      17.28266       163.05272    
   1215000   0.97788792     17.953992      163.11887    
   1216000   0.99018834     17.980167      163.02015    
   1217000   0.98309753     18.041892      163.0953     
   1218000   0.93940187     17.816193      163.12717    
   1219000   1.0053635      18.477815      163.18709    
   1220000   0.9743192      18.658046      163.06601    
   1221000   1.046313       18.434107      162.90075    
   1222000   1.0273832      18.781357      162.93924    
   1223000   1.0116807      18.3189        162.76159    
   1224000   0.98551609     18.42845       162.53401    
   1225000   0.97351971     18.347603      162.54541    
   1226000   1.0069515      18.478556      162.67425    
   1227000   1.0088133      18.689933      162.59858    
   1228000   0.96244834     18.515703      162.67185    
   1229000   1.0083903      18.148149      162.60105    
   1230000   1.0025266      18.131633      162.57253    
   1231000   1.0246269      18.290661      162.55061    
   1232000   1.0259545      18.359716      162.54447    
   1233000   0.95879126     18.285825      162.44562    
   1234000   1.0396109      18.624222      162.201      
   1235000   0.98434763     18.227698      162.28233    
   1236000   0.95981136     17.996443      162.05509    
   1237000   1.0303905      18.462321      161.80948    
   1238000   0.98045197     18.474815      161.56723    
   1239000   0.99049744     17.829373      161.32083    
   1240000   0.98713488     18.109722      161.23578    
   1241000   1.0093689      18.688669      161.1125     
   1242000   1.0348289      18.417204      161.0611     
   1243000   1.0109004      18.687366      161.17671    
   1244000   0.96953046     18.215125      161.25892    
   1245000   0.96621979     18.205339      161.12912    
   1246000   0.97748559     18.18463       161.00175    
   1247000   1.0198344      18.564123      160.9144     
   1248000   0.98102479     18.383528      161.04989    
   1249000   1.0184163      18.331958      161.03223    
   1250000   0.97098805     18.23889       161.13229    
   1251000   0.99594664     18.139605      161.0043     
   1252000   1.0262862      18.470044      161.03228    
   1253000   1.0037165      18.515899      161.00532    
   1254000   1.0152946      18.344393      161.06099    
   1255000   0.99729427     18.134237      161.15644    
   1256000   0.98700592     18.681988      161.1211     
   1257000   0.97735551     18.103522      161.20113    
   1258000   0.97436182     18.656573      161.02274    
   1259000   1.0002891      18.211934      161.24634    
   1260000   1.0089792      18.764875      161.17838    
   1261000   1.019807       17.986378      161.23994    
   1262000   0.95216072     18.017064      161.20592    
   1263000   1.0093468      18.686138      161.09033    
   1264000   1.0269448      18.330627      160.93704    
[...]
   3345000   0.98478981     17.32436       25.41667     
   3346000   1.0181461      17.601689      25.514752    
   3347000   0.97729605     17.406303      25.485321    
   3348000   0.9892461      17.395714      25.238508    
   3349000   0.99796463     16.928763      24.939572    
   3350000   1.0009054      17.026436      24.82757     
   3351000   0.9916827      16.847809      24.730581    
   3352000   0.98790019     17.287723      24.628089    
   3353000   0.99018335     17.038886      24.627831    
   3354000   1.0385824      17.059307      24.410632    
   3355000   1.0039595      17.258185      24.230393    
   3356000   1.0044271      18.046963      24.28618     
   3357000   0.98899951     17.840854      24.182502    
   3358000   1.0369671      17.392934      23.920042    
   3359000   1.0047779      17.325949      23.809075    
   3360000   1.0203633      17.087653      23.697986    
   3361000   1.0133546      17.28799       23.74658     
   3362000   0.98165074     17.534577      23.680935    
   3363000   1.0407068      16.981263      23.56074     
   3364000   1.0204438      17.663785      23.335641    
   3365000   0.96664437     16.934059      23.323467    
   3366000   0.996066       16.664076      23.385244    
   3367000   1.0057158      17.088018      23.547668    
   3368000   1.027443       16.794124      23.496861    
   3369000   1.0497567      17.228337      23.248604    
   3370000   1.0085455      17.262005      23.265774    
   3371000   0.9809145      16.864648      22.966339    
   3372000   0.99764894     16.962352      22.911175    
   3373000   0.98129673     17.218164      23.000953    
   3374000   0.96088275     17.453864      22.741497    
   3375000   1.0169833      17.589807      22.733291    
   3376000   0.99977874     17.203884      22.583641    
   3377000   1.0170064      16.759421      22.592362    
   3378000   1.0107868      17.110046      22.405812    
   3379000   1.0031616      17.277503      22.404026    
   3380000   0.97826864     17.083476      22.330135    
   3381000   0.99760158     17.256751      22.144438    
   3382000   1.0056387      16.791128      22.19375     
   3383000   1.0532513      16.980751      22.133762    
   3384000   1.0127983      17.107639      22.096123    
   3385000   0.97199416     16.855829      21.934122    
   3386000   0.98697314     16.611088      21.876805    
   3387000   1.0282241      17.785378      21.820039    
   3388000   1.0272998      17.21821       21.82832     
   3389000   1.0114105      16.855939      21.892958    
   3390000   0.98705951     16.641111      21.943923    
   3391000   0.97681976     17.603989      22.015992    
   3392000   1.0254123      17.021532      21.852455    
   3393000   1.0188489      17.205312      21.792828    
   3394000   0.989294       17.21807       21.780412    
   3395000   0.98203777     17.439815      21.523478    
   3396000   0.99382635     17.059032      21.477066    
   3397000   0.97426426     16.763446      21.400912    
   3398000   1.0017046      17.004743      21.425289    
   3399000   1.0060475      17.193676      21.316838    
   3400000   0.98900898     17.255684      21.092044    
   3401000   1.0262528      17.117105      21.193095    
   3402000   1.0190406      17.430162      21.199497    
   3403000   1.0453706      16.998304      21.170246    
   3404000   1.0027567      17.040248      21.137108    
   3405000   0.98776776     17.620423      21.268887    
   3406000   1.0239207      17.408684      21.277942    
   3407000   0.99159436     18.028753      21.468771    
   3408000   1.0024145      16.974163      21.329324    
   3409000   0.97292898     17.13578       21.36108     
   3410000   1.0109512      17.196889      21.284985    
   3411000   0.9971283      16.945048      21.233734    
   3412000   1.0024888      17.014809      21.330655    
   3413000   1.015904       17.561207      21.177115    
   3414000   1.0313808      17.073539      21.180408    
   3415000   1.0203498      17.099514      21.3005      
   3416000   0.98768803     17.63618       21.310127    
   3417000   0.98109884     16.563506      21.362263    
   3418000   1.0504382      17.012226      21.319606    
   3419000   1.0342707      17.546631      21.423209    
   3420000   0.96200736     16.986891      21.464761    
   3421000   1.1040743      17.150354      21.500408    
   3422000   0.95565513     17.269836      21.167705    
   3423000   0.99064292     16.954648      21.12131     
   3424000   0.99838453     17.522532      21.135411    
   3425000   1.031103       16.929262      20.982377    
   3426000   0.98663861     17.058547      20.752778    
   3427000   0.99736419     17.150598      20.469512    
   3428000   1.0495943      16.966966      20.456932    
   3429000   0.99713231     17.116291      20.334916    
   3430000   1.0164071      16.881158      20.029957    
   3431000   1.0004535      17.185302      20.145712    
   3432000   1.0313499      17.124524      20.131148    
   3433000   0.98157884     16.87823       20.297675    
   3434000   0.99731784     16.796148      20.47835     
   3435000   0.97699548     16.906272      20.320341    
   3436000   0.99280325     17.367592      20.134071    
   3437000   0.97699365     17.356801      20.159964    
   3438000   0.97890527     17.046299      20.005343    
   3439000   0.95754461     17.275794      19.894016    
   3440000   0.99542542     17.146195      19.894232    
   3441000   0.99988633     17.604214      19.778467    
   3442000   1.0217976      17.37502       19.911212    
   3443000   1.0061752      17.374506      19.837535    
   3444000   1.0457397      16.845863      19.800023    
   3445000   1.0318721      17.023278      19.614955    
   3446000   0.96636333     17.232701      19.785164    
   3447000   1.0109142      16.419177      19.775983    
   3448000   0.97953854     17.007734      19.6291      
   3449000   1.0119657      17.431471      19.63871     
   3450000   0.98876665     16.462125      19.49434     
   3451000   1.0528397      17.321719      19.44964     
   3452000   0.99609617     17.09601       19.469806    
   3453000   0.97332874     16.958834      19.40616     
   3454000   0.97623395     17.651138      19.262836    
   3455000   0.98226632     17.203862      19.133016    
   3456000   0.99567382     17.148465      18.610003    
   3457000   0.99045909     17.500747      18.63632     
   3458000   0.96625281     16.704514      18.705162    
   3459000   1.0123976      16.772795      18.392301    
   3460000   0.95695688     17.11082       18.221545    
   3461000   0.97574558     17.150414      18.271758    
   3462000   0.9934206      16.54342       18.118278    
   3463000   1.0217252      16.945738      18.025803    
   3464000   1.025307       17.138808      17.767065    
   3465000   1.0038385      17.708292      17.5608      
   3466000   1.0032421      18.092915      17.344055    
   3467000   1.0221372      17.067802      17.328085    
   3468000   1.0095647      17.27718       17.34152     
   3469000   0.98483541     17.44787       17.252355    
   3470000   1.0426617      17.36534       17.177093    
   3471000   1.0524408      17.854228      17.167467    
   3472000   0.97634618     16.897255      17.166164    
   3473000   0.96417435     16.784196      16.987414    
   3474000   0.9805717      16.634881      16.845692    
   3475000   1.0132212      17.440942      16.827166    
   3476000   1.0070742      17.046789      16.607653    
   3477000   0.97522224     17.450629      16.541459    
   3478000   1.0022871      17.121013      16.616945    
   3479000   1.0109341      17.653908      16.513155    
   3480000   1.0208554      17.268464      16.37058     
   3481000   1.0312495      17.132367      16.180984    
   3482000   0.99048546     17.408414      15.928002    
   3483000   0.99788392     17.436451      16.098628    
   3484000   1.0069983      17.198172      16.12772     
   3485000   0.96336078     17.252088      16.191795    
   3486000   0.98528003     17.315457      16.139465    
   3487000   1.0022894      17.079656      16.06763     
   3488000   0.97688648     16.603413      16.145415    
   3489000   1.0084925      17.983483      16.121627    
   3490000   1.038479       17.178005      16.09263     
   3491000   1.0096791      17.138061      16.143249    
   3492000   0.99619074     17.155772      16.029449    
   3493000   0.99285121     16.606286      15.844374    
   3494000   0.97741664     16.994745      15.899005    
   3495000   1.0370192      17.146896      15.775966    
   3496000   0.9932225      17.345836      15.760472    
   3497000   1.0068875      17.530874      15.469181    
   3498000   1.0312666      17.077344      15.410676    
   3499000   0.97791759     17.207701      15.503031    
   3500000   1.0394182      17.52749       15.65106     
   3501000   0.99187457     17.378261      15.529898    
   3502000   0.97930088     17.042329      15.293309    
   3503000   0.99204335     16.875308      15.02577     
   3504000   1.0304822      16.592599      14.838621    
   3505000   1.0384171      17.544213      14.577437    
   3506000   1.0103508      17.651215      14.472197    
   3507000   0.98288282     16.525846      14.256515    
   3508000   0.98923825     17.158436      14.25291     
   3509000   1.0026081      16.90109       14.186025    
   3510000   1.028496       18.054093      14.263734    
   3511000   1.012657       16.785845      14.333643    
   3512000   0.97287429     17.011478      14.279312    
   3513000   0.97681263     17.113935      14.39662     
   3514000   1.0005577      17.312874      14.413052    
   3515000   1.0216568      17.18687       14.345373    
   3516000   1.002182       17.142986      14.44305     
   3517000   1.0132113      17.178636      14.388134    
   3518000   0.94320378     16.99978       14.373441    
   3519000   1.0029023      16.772911      14.339847    
   3520000   0.97067664     16.745014      14.33794     
   3521000   1.0158835      16.771164      14.208219    
   3522000   0.97708803     16.954319      14.098311    
   3523000   1.0203853      16.529261      13.962988    
   3524000   1.000101       16.58695       13.929475    
   3525000   0.98243385     17.652835      13.784531    
   3526000   1.0007033      16.771915      13.678058    
   3527000   0.930096       17.288583      13.358175    
   3528000   1.0078299      16.590658      13.22094     
   3529000   1.0029448      17.785301      13.304285    
   3530000   1.0103565      17.514813      13.177269    
   3531000   0.97378864     16.75592       13.130563    
   3532000   1.0197724      17.354549      13.184274    
   3533000   1.028735       17.187561      13.117795    
   3534000   1.0280584      17.273393      13.168395    
   3535000   0.98826628     16.943736      13.084444    
   3536000   0.98020351     16.934906      13.291815    
   3537000   1.0283337      17.294022      13.093604    
   3538000   1.0502962      16.738485      13.005633    
   3539000   0.98763878     16.930521      13.083068    
   3540000   1.0102023      16.862077      13.201824    
   3541000   0.96222721     16.810473      13.018485    
   3542000   0.99704466     17.130087      12.926942    
   3543000   0.99714209     17.090654      12.83079     
   3544000   0.97767807     17.257972      12.747572    
   3545000   0.99849846     16.480394      12.996861    
   3546000   1.0002752      17.297729      12.874977    
   3547000   1.0042608      17.629555      12.824675    
   3548000   1.0022899      16.563741      12.765991    
   3549000   0.97199024     17.519175      13.013177    
   3550000   1.0044863      16.996454      12.857756    
   3551000   1.0312555      17.516597      12.645985    
   3552000   1.0023296      17.41142       12.474703    
   3553000   1.0125008      16.673223      12.464595    
   3554000   0.9534537      17.188798      12.373742    
   3555000   0.96914882     16.529148      12.324755    
   3556000   0.97877579     17.134346      12.543739    
   3557000   1.0214692      16.810329      12.585076    
   3558000   1.0204378      17.802645      12.623573    
   3559000   1.0059776      16.651796      12.51537     
   3560000   1.0116551      17.442679      12.619961    
   3561000   0.99276287     17.11788       12.532321    
   3562000   0.99258199     17.182124      12.507328    
   3563000   0.98040934     16.739111      12.275408    
   3564000   1.0084439      17.102305      12.213019    
   3565000   1.0153938      17.120361      12.294127    
   3566000   0.96475859     17.063964      12.289249    
   3567000   1.0365407      17.71694       12.113469    
   3568000   0.99681167     16.757098      12.063031    
   3569000   1.0127252      17.370045      12.029354    
   3570000   1.0064186      16.853314      11.940512    
   3571000   1.000885       17.044115      11.929356    
   3572000   0.96536487     17.077159      11.674168    
   3573000   0.97530535     17.121919      11.633332    
   3574000   0.97377261     17.255758      11.513945    
   3575000   1.0198425      17.276782      11.343658    
   3576000   1.025131       17.257985      11.121449    
   3577000   0.97606981     17.385219      11.048312    
   3578000   0.98274195     16.906922      10.912803    
   3579000   1.0179135      17.505579      11.13508     
   3580000   1.0533105      17.216545      11.150686    
   3581000   1.0018609      17.190525      11.220893    
   3582000   1.0380761      17.507414      11.412151    
   3583000   1.0461036      17.833294      11.075765    
   3584000   0.9995303      17.235031      10.826463    
   3585000   1.0262509      17.370705      10.883988    
   3586000   1.008832       16.475579      10.912157    
   3587000   0.97929934     17.546915      10.667459    
   3588000   1.0085525      17.234727      10.505192    
   3589000   0.94415509     16.697734      10.597696    
   3590000   1.0027601      17.107102      10.287423    
   3591000   0.98946124     16.834298      10.337112    
   3592000   0.98631247     16.973856      10.366605    
   3593000   1.0476038      17.390086      10.287647    
   3594000   0.9424879      17.431604      9.998119     
   3595000   1.0249128      17.077304      9.9138692    
   3596000   0.96722276     16.754455      10.003788    
   3597000   1.0162178      16.878468      9.8994952    
   3598000   1.0148594      17.311674      9.7667316    
   3599000   1.0026161      17.527329      9.6721205    
   3600000   0.98625955     17.599016      9.6392248    
   3601000   1.0003309      17.003327      9.596996     
   3602000   0.97481397     16.970436      9.5604853    
   3603000   0.97806691     16.928086      9.6405851    
   3604000   1.0448199      17.287925      9.602795     
   3605000   0.98419889     17.164718      9.6179605    
   3606000   1.0771583      16.99115       9.5233501    
   3607000   1.0441574      17.329447      9.3942461    
   3608000   1.0032665      17.105478      9.3987318    
   3609000   1.0632821      17.508587      9.3744363    
   3610000   0.97580615     16.935716      9.2297103    
   3611000   0.97711322     16.72967       9.1842128    
   3612000   1.0098378      17.148094      8.9391361    
   3613000   1.0283907      17.347073      9.1582056    
   3614000   0.96276863     17.709244      9.0521129    
   3615000   1.0052487      16.525198      8.8807538    
   3616000   1.0116217      16.680564      8.9419753    
   3617000   0.98010259     16.471328      9.0662577    
   3618000   0.99672725     17.18574       9.0850049    
   3619000   1.0210135      16.818888      9.1055185    
   3620000   0.9853818      17.075663      9.1604219    
   3621000   1.0016847      16.963125      9.2297713    
   3622000   1.0138435      17.118585      9.1253373    
   3623000   1.0204166      16.905353      8.8793854    
   3624000   0.98430122     16.870044      8.9330779    
   3625000   1.0213881      17.379114      9.0078722    
   3626000   0.97603556     17.118306      8.9265958    
   3627000   1.0045268      16.905531      8.8420975    
   3628000   1.0184383      17.206105      9.0421372    
   3629000   0.99130786     16.842535      9.057219     
   3630000   1.0002238      17.719063      8.9376057    
   3631000   1.0146175      17.807926      8.9135589    
   3632000   1.006735       17.410979      8.7645763    
   3633000   0.9630616      17.402668      8.804333     
   3634000   1.0300959      17.44193       8.8865273    
   3635000   0.97572261     17.312656      8.7934014    
   3636000   1.0106016      17.024401      8.7572774    
   3637000   0.97930986     16.827182      8.6874183    
   3638000   1.0090338      16.823623      8.7036764    
   3639000   1.0156485      17.018775      8.6834686    
   3640000   1.0286904      17.186173      8.5150261    
   3641000   1.0176701      17.324168      8.3159854    
   3642000   0.95844781     16.907048      8.4118211    
   3643000   0.99553281     16.419297      8.2113398    
   3644000   1.0077538      17.498761      8.1036885    
   3645000   1.0208289      17.190352      8.0206554    
   3646000   1.0267135      16.973593      7.8094878    
   3647000   0.9907518      17.172256      7.6454916    
   3648000   1.0292836      16.447009      7.4144584    
   3649000   0.95834048     16.885867      7.1768543    
Fix halt condition for fix-id 3 met on step 3650000 with value 6.968654658527682 (src/fix_halt.cpp:237)
   3650000   0.96354478     16.715962      6.9686547    
Loop time of 6292.46 on 2 procs for 3550000 steps with 1100 atoms

Performance: 487440.910 tau/day, 564.168 timesteps/s
121.3% CPU use with 1 MPI tasks x 2 OpenMP threads

MPI task timing breakdown:
Section |  min time  |  avg time  |  max time  |%varavg| %total
---------------------------------------------------------------
Pair    | 1004.1     | 1004.1     | 1004.1     |   0.0 | 15.96
Bond    | 84.007     | 84.007     | 84.007     |   0.0 |  1.34
Neigh   | 5003.4     | 5003.4     | 5003.4     |   0.0 | 79.51
Comm    | 1.4365     | 1.4365     | 1.4365     |   0.0 |  0.02
Output  | 9.055      | 9.055      | 9.055      |   0.0 |  0.14
Modify  | 175.75     | 175.75     | 175.75     |   0.0 |  2.79
Other   |            | 14.65      |            |       |  0.23

Nlocal:           1100 ave        1100 max        1100 min
Histogram: 1 0 0 0 0 0 0 0 0 0
Nghost:              0 ave           0 max           0 min
Histogram: 1 0 0 0 0 0 0 0 0 0
Neighs:         243518 ave      243518 max      243518 min
Histogram: 1 0 0 0 0 0 0 0 0 0

Total # of neighbors = 243518
Ave neighs/atom = 221.38
Ave special neighs/atom = 1.9981818
Neighbor list builds = 34880
Dangerous builds = 0

# This simulation is done
# Move onto the next one
clear
  using 2 OpenMP thread(s) per MPI task
package omp 0
using multi-threaded neighbor list subroutines
next f
jump SELF

###
# Reference paper:
# K. Kremer and G. S. Grest
# Dynamics of entangled linear polymer melts: A molecular-dynamics simulation
# J Chem Phys 92, 5057 (1990)

##################################
# MIHIR: for branched polymers
# LJ minimum first to expand and explore, then collapse
###

###
# Looping through the various linear polymers to simulate,
# define variables to switch through
# variable f index bb100nuc0bl0bn0d30tot100 bb200nuc0bl0bn0d30tot200 bb300nuc0bl0bn0d30tot300 bb400nuc0bl0bn0d30tot400 bb500nuc0bl0bn0d30tot500 bb600nuc0bl0bn0d30tot600 bb700nuc0bl0bn0d30tot700 bb800nuc0bl0bn0d30tot800 bb900nuc0bl0bn0d30tot900 bb1000nuc0bl0bn0d30tot1000 bb1100nuc0bl0bn0d30tot1100 bb1200nuc0bl0bn0d30tot1200
variable f index bb500nuc0bl0bn0d30tot500 bb600nuc0bl0bn0d30tot600 bb700nuc0bl0bn0d30tot700 bb800nuc0bl0bn0d30tot800 bb900nuc0bl0bn0d30tot900 bb1000nuc0bl0bn0d30tot1000 bb1100nuc0bl0bn0d30tot1100 bb1200nuc0bl0bn0d30tot1200
###


###
# Box and units  (use LJ units and periodic boundaries)
###

units lj
log linear/logs2/$f.log
log linear/logs2/bb1200nuc0bl0bn0d30tot1200.log
