#atom_style bond #no stiffness
atom_style angle #with stiffness

boundary        p p p
###
# Pair interactions require lists of neighbours to be calculated
###

#neighbor 0.3 bin
neighbor 4 bin

neigh_modify every 1 delay 1 check yes
atom_modify sort 0 0
### Generate RESTART file, SPECIAL format, not a .txt file ###
### Useful if simulation crashes ###

restart 1000000 linear/restarts2/$f.restart
restart 1000000 linear/restarts2/bb1200nuc0bl0bn0d30tot1200.restart
#############################



### READ "start" data file ###

read_data linear/$f.dat
read_data linear/bb1200nuc0bl0bn0d30tot1200.dat
Reading data file ...
  orthogonal box = (-1000 -1000 -1000) to (1000 1000 1000)
  1 by 1 by 1 MPI processor grid
  reading atoms ...
  1200 atoms
  scanning bonds ...
  1 = max bonds/atom
  scanning angles ...
  1 = max angles/atom
  reading bonds ...
  1199 bonds
  reading angles ...
  1198 angles
Finding 1-2 1-3 1-4 neighbors ...
  special bond factors lj:    0        0        0       
  special bond factors coul:  0        0        0       
     2 = max # of 1-2 neighbors
     2 = max # of 1-3 neighbors
     4 = max # of 1-4 neighbors
     6 = max # of special neighbors
  special bonds CPU = 0.001 seconds
  read_data CPU = 0.083 seconds

######################

### READ "REstart" data file ###

######################



###
# Define groups (atom type 1 is group 'all')
###
group all type 1
1200 atoms in group all


###
# Dump configs - "simple dumpings"
###

###
# Dump configs + box coords
###

dump   1   all   custom   1000  linear/trjs2/$f.lammpstrj  id  x y z  ix iy iz
dump   1   all   custom   1000  linear/trjs2/bb1200nuc0bl0bn0d30tot1200.lammpstrj  id  x y z  ix iy iz
dump_modify   1   format line "%d %.5f %.5f %.5f %d %d %d"

########################################################################


###################################################################
# Stiffness term
#
# E = K * (1+cos(theta)), K>0
#
angle_style   cosine
#change this coefficient to change stiffness (e.g. 1,5,10)
angle_coeff   1 1.0
###################################################################

###################################################################
# Pair interaction between non-bonded atoms
#
#  Lennard-Jones 12-6 potential with cutoff:
#  potential E=4epsilon[ (sigma/r)^12 - (sigma/r)^6]  for r<r_cut
#
#  1.12246 = 2^(1/6) is the minimum of the potential


pair_style      lj/cut 1.12246152962189
#pair_style      lj/cut 3

#
#  pair_modify shift yes adds a constant to the potential such

#  that E(r_cut)=0. Forces remains unchanged.
#

pair_modify     shift yes

#
#  pair_coeff for lj/cut, specify 4:
#    * atom type interacting with
#    * atom type
#    * epsilon (energy units)
#    * sigma (distance units)
#

pair_coeff      1 1 1.0 1.0
###################################################################

###################################################################
# Pair interaction between non-bonded atoms
#
#  soft potential, for PUSHING apart overlapping atoms
#  potential E=A*(1 + cos(pi*r/r_c))
#
#  1.12246 = 2^(1/6) is the cut-off r_c

#pair_style     soft 1.12246152962189

#
#  pair_coeff for soft, specify 3:
#    * atom type interacting with
#    * atom type
#    * A
#
#

#pair_coeff      1 1 100.0
###################################################################

###################################################################
# Pair interaction between bonded atoms
#
# Fene potential + Lennard Jones 12-6:

#
#  E= - 0.5 K R0^2 ln[ 1- (r/R0)^2]
#     + 4epsilon[ (sigma/r)^12 - (sigma/r)^6] + epsilon
#

bond_style   fene


#
# For style fene, specify:
#   * bond type
#   * K (energy/distance^2)
#   * R0 (distance)
#   * epsilon (energy)  (LJ component)
#   * sigma (distance)  (LJ component)
#


special_bonds fene #<=== I M P O R T A N T (new command)
Finding 1-2 1-3 1-4 neighbors ...
  special bond factors lj:    0        1        1       
  special bond factors coul:  0        1        1       
     2 = max # of 1-2 neighbors
     6 = max # of special neighbors
  special bonds CPU = 0.000 seconds

bond_coeff   1   30   2   1.0   1.0


###################################################

###################################################################
# Pair interaction between bonded atoms
#
# Harmonic potential:
#
#  E= K * (R-R0)^2
#

#bond_style   harmonic

#
# For style harmonic, specify:
#   * bond type
#   * K (energy/distance^2)
#   * R0 (distance)
#

#bond_coeff   1   60.0   1.0
#bond_coeff   2   harmonic 0.1   1.0

###################################################
compute 1 all gyration
variable rog equal c_1
#compute 2 all coord/atom cutoff 1.1

#dump 2 all custom 10000 contact_number.dump id c_2


###
# Set up fixes
###
thermo_style   custom   step  temp enthalpy c_1
fix 1 all nve   ###NVE ensemble

fix 2 all   langevin   1.0 1.0 1.0  778655   ###Langevin integrator Tstart Tstop 1/friction rndseed


##### Sample thermodynamic info  (temperature, energy, pressure, etc.) #####
thermo 1000









############################################################################

###
# set timestep of integrator

timestep 0.01

###
# run integration for a number of steps
###
#run 0
#variable r equal c_1
#if "$r < 63.1" then "quit 1"

# lj potential minimum, cause molecule to explore
run 100000
Generated 0 of 0 mixed pair_coeff terms from geometric mixing rule
Last active /omp style is angle_style cosine/omp
Neighbor list info ...
  update: every = 1 steps, delay = 1 steps, check = yes
  max neighbors/atom: 2000, page size: 100000
  master list distance cutoff = 5.1224615
  ghost atom cutoff = 5.1224615
  binsize = 2.5612308, bins = 781 781 781
  1 neighbor lists, perpetual/occasional/extra = 1 0 0
  (1) pair lj/cut/omp, perpetual
      attributes: half, newton on, omp
      pair build: half/bin/newton/omp
      stencil: half/bin/3d
      bin: standard
WARNING: Communication cutoff 5.12246152962189 is shorter than a bond length based estimate of 5.455. This may lead to errors. (src/comm.cpp:723)
Per MPI rank memory allocation (min/avg/max) = 1860 | 1860 | 1860 Mbytes
   Step          Temp         Enthalpy         c_1      
         0   0              13.41568       300.00019    
      1000   1.0190011      19.049763      300.06668    
      2000   1.0582291      18.897617      299.93581    
      3000   0.96567656     18.636481      299.76276    
      4000   0.93437796     18.699031      299.6582     
      5000   1.0156003      19.084168      299.549      
      6000   0.97602524     18.937341      299.37361    
      7000   0.97344569     18.623498      299.32912    
      8000   1.0547315      18.888866      299.07974    
      9000   1.0131583      19.023383      298.85019    
     10000   1.0224796      18.678079      298.68628    
     11000   0.97348567     18.840819      298.63842    
     12000   0.96065353     18.62029       298.53459    
     13000   0.99950581     19.119896      298.64395    
     14000   0.97915654     18.50738       298.39794    
     15000   0.99173469     18.795367      298.35614    
     16000   0.95815431     18.787641      298.25242    
     17000   1.0232243      19.217605      298.15733    
     18000   1.0097451      19.080668      298.16874    
     19000   0.9466517      18.558622      298.03958    
     20000   0.98447732     18.590882      297.96273    
     21000   1.0036935      18.801457      297.82749    
     22000   0.98111234     19.234728      297.53245    
     23000   0.9710054      19.13157       297.5326     
     24000   0.991525       19.127121      297.34568    
     25000   0.99202378     18.78675       297.03416    
     26000   0.98426272     19.034791      296.80732    
     27000   0.96570609     18.751123      296.59134    
     28000   1.0553033      19.260869      296.29799    
     29000   1.0002355      19.05783       296.03752    
     30000   1.0034988      19.085601      295.91999    
     31000   1.0321624      18.937548      295.72562    
     32000   0.99511464     18.927514      295.61796    
     33000   1.0204318      18.918795      295.30961    
     34000   1.001577       19.524966      295.25711    
     35000   1.0295095      19.098222      295.15375    
     36000   1.0190426      18.976954      295.04688    
     37000   0.98619272     18.703767      294.90495    
     38000   1.0001588      19.101501      294.95269    
     39000   0.99583966     19.131086      294.93012    
     40000   0.995278       18.998572      294.89881    
     41000   0.99889702     19.091879      294.89302    
     42000   0.98854505     19.194885      294.91953    
     43000   1.0103993      19.496479      294.87728    
     44000   0.96841276     19.156287      294.54689    
     45000   0.99724625     18.548121      294.30148    
     46000   0.99257856     18.556365      294.24269    
     47000   0.98840328     19.194199      294.29356    
     48000   0.9757668      18.884513      294.3558     
     49000   0.99484325     18.957722      294.25105    
     50000   1.0196227      19.073404      294.36359    
     51000   1.0205099      18.771997      294.26366    
     52000   0.99832559     19.082593      294.19348    
     53000   0.96186589     18.563488      294.08912    
     54000   0.98018048     19.257642      293.9796     
     55000   0.96997136     18.687117      293.75779    
     56000   0.98536099     19.31565       293.75031    
     57000   0.9763356      19.064294      293.54451    
     58000   0.99195102     19.093542      293.51957    
     59000   1.0379477      19.098904      293.30078    
     60000   0.98427862     19.058185      293.2707     
     61000   1.0255622      19.481544      293.16079    
     62000   1.026502       18.575114      292.91763    
     63000   0.98668629     19.082898      292.77864    
     64000   0.96622314     18.952312      292.74614    
     65000   0.97155496     18.827551      292.82319    
     66000   0.97216167     18.825185      292.64387    
     67000   0.98656897     19.093257      292.59522    
     68000   1.0347165      19.134652      292.58255    
     69000   1.0333621      19.14969       292.34267    
     70000   0.97961301     19.357656      291.90634    
     71000   0.95691758     19.35986       291.57014    
     72000   1.0192782      19.151797      291.32603    
     73000   1.0463166      19.376793      291.11247    
     74000   0.96046852     18.830655      291.08575    
     75000   1.0256199      19.842422      290.886      
     76000   0.99629344     19.520525      290.81329    
     77000   0.99301688     19.309799      290.80196    
     78000   0.98494841     19.139447      290.88107    
     79000   0.99467701     19.141001      290.79053    
     80000   0.97356981     19.051337      290.97646    
     81000   0.99641629     19.250901      291.17164    
     82000   0.97791221     19.14159       291.3183     
     83000   0.99792988     19.422601      291.0535     
     84000   1.0285479      19.174871      290.77692    
     85000   1.0130477      19.187332      290.82037    
     86000   0.95360232     19.112676      290.65261    
     87000   0.9805458      18.770372      290.50619    
     88000   0.97519277     18.861309      290.22       
     89000   1.0098957      18.939296      290.22053    
     90000   0.9802037      19.106261      290.00784    
     91000   0.98470697     19.189782      289.82238    
     92000   1.0036688      19.03044       289.72964    
     93000   1.0110689      19.448279      289.5361     
     94000   0.98425644     19.266681      289.52433    
     95000   1.0169547      19.223739      289.38605    
     96000   0.99500119     19.236899      289.23787    
     97000   1.0114388      19.268195      289.01945    
     98000   0.98529111     18.903176      288.86602    
     99000   1.0233822      19.436256      289.0163     
    100000   1.0118327      19.342929      288.47859    
Loop time of 500.708 on 2 procs for 100000 steps with 1200 atoms

Performance: 172555.786 tau/day, 199.717 timesteps/s
102.1% CPU use with 1 MPI tasks x 2 OpenMP threads

MPI task timing breakdown:
Section |  min time  |  avg time  |  max time  |%varavg| %total
---------------------------------------------------------------
Pair    | 1.0425     | 1.0425     | 1.0425     |   0.0 |  0.21
Bond    | 2.4256     | 2.4256     | 2.4256     |   0.0 |  0.48
Neigh   | 491.39     | 491.39     | 491.39     |   0.0 | 98.14
Comm    | 0.066825   | 0.066825   | 0.066825   |   0.0 |  0.01
Output  | 0.27837    | 0.27837    | 0.27837    |   0.0 |  0.06
Modify  | 5.0634     | 5.0634     | 5.0634     |   0.0 |  1.01
Other   |            | 0.4452     |            |       |  0.09

Nlocal:           1200 ave        1200 max        1200 min
Histogram: 1 0 0 0 0 0 0 0 0 0
Nghost:              0 ave           0 max           0 min
Histogram: 1 0 0 0 0 0 0 0 0 0
Neighs:           5619 ave        5619 max        5619 min
Histogram: 1 0 0 0 0 0 0 0 0 0

Total # of neighbors = 5619
Ave neighs/atom = 4.6825
Ave special neighs/atom = 1.9983333
Neighbor list builds = 1067
Dangerous builds = 0

# Replace lj potential, now collapse
pair_style      lj/cut 3

# Cutoff simul when gyration under 5
# Variable created with equal requires v_ + 'name'
fix 3 all halt 1000 v_rog < 7

run 5000000
Generated 0 of 0 mixed pair_coeff terms from geometric mixing rule
Last active /omp style is angle_style cosine/omp
Per MPI rank memory allocation (min/avg/max) = 1860 | 1860 | 1860 Mbytes
   Step          Temp         Enthalpy         c_1      
    100000   1.0118327      18.920579      288.47859    
    101000   0.95775615     18.702852      288.37452    
    102000   1.0017073      18.373448      288.26173    
    103000   1.024344       18.887263      288.23736    
    104000   1.0212126      19.124216      288.17594    
    105000   1.0336282      19.060764      288.06454    
    106000   0.97896771     18.997465      288.1066     
    107000   1.0109994      19.254816      287.99034    
    108000   0.97267074     18.800835      287.7627     
    109000   0.9516405      18.419528      287.62974    
    110000   1.01228        18.856122      287.41697    
    111000   0.96650506     18.747355      287.33125    
    112000   1.020584       18.908719      287.14413    
    113000   1.0223793      18.72165       287.29153    
    114000   0.98537764     18.967788      287.43024    
    115000   0.97716232     18.806974      287.22855    
    116000   1.0068794      18.784227      287.13805    
    117000   1.0054927      19.289712      286.96925    
    118000   1.0039954      18.939731      286.97732    
    119000   1.01248        19.21288       286.67452    
    120000   0.97577989     18.970316      286.66318    
    121000   1.0155584      18.841964      286.33114    
    122000   1.0434769      19.282627      286.09041    
    123000   0.99000719     19.038279      285.79575    
    124000   0.99821609     18.825073      285.79635    
    125000   0.97180012     18.537283      285.53013    
    126000   0.99728611     18.950643      285.46018    
    127000   0.96462557     18.566885      285.39511    
    128000   1.010627       18.763108      285.27929    
    129000   0.99533816     19.199037      285.17464    
    130000   1.0098975      18.666864      285.0562     
    131000   1.0113687      18.594385      284.87772    
    132000   0.99243771     19.307162      284.5732     
    133000   1.0774322      18.647929      284.65164    
    134000   0.96193825     19.000967      284.46678    
    135000   1.0029785      18.858412      284.3855     
    136000   0.98190079     18.86492       284.07835    
    137000   1.0327964      18.938725      283.92754    
    138000   1.0187885      18.718288      283.91483    
    139000   1.0040939      18.95635       283.60498    
    140000   1.0274922      18.971736      283.26274    
    141000   1.0197531      18.739782      283.06806    
    142000   1.0170145      18.7838        282.75874    
    143000   0.98355127     19.286709      282.52104    
    144000   1.0108835      18.687038      282.54893    
    145000   1.0164519      18.831223      282.42424    
    146000   1.0053358      18.877422      282.39892    
    147000   0.99781805     18.755924      282.02758    
    148000   0.98442567     18.863779      281.85012    
    149000   1.0292223      18.786588      281.67732    
    150000   1.0090511      18.97453       281.35929    
    151000   0.98600497     19.005346      281.04148    
    152000   1.0096361      19.251901      280.96847    
    153000   0.98391455     18.890875      280.77881    
    154000   0.97099759     18.427167      280.73345    
    155000   0.97664021     18.736128      280.63046    
    156000   1.006101       18.625158      280.57405    
    157000   1.0343924      19.147082      280.46634    
    158000   1.0223322      19.151893      280.73891    
    159000   0.9758494      19.014276      280.65106    
    160000   1.0414631      18.729381      280.66049    
    161000   0.99572075     18.683627      280.63377    
    162000   1.0391707      19.044447      280.38562    
    163000   1.0084541      18.503538      280.22959    
    164000   1.0013386      19.101386      280.3405     
    165000   1.0263677      18.479032      280.27653    
    166000   1.0019221      19.271471      280.10344    
    167000   0.99494423     18.919275      279.95565    
    168000   1.0073051      18.992423      279.89236    
    169000   1.0251291      18.7079        279.67965    
    170000   0.990677       18.984375      279.57623    
    171000   0.97781809     18.677496      279.51627    
    172000   1.0188793      19.169747      279.14876    
    173000   1.0300628      18.965562      278.78989    
    174000   0.96639701     18.662386      278.79011    
    175000   0.95850002     18.770251      278.87032    
    176000   0.9964658      19.16337       278.87602    
    177000   1.0078396      18.864506      278.65146    
    178000   0.97362626     19.089171      278.53371    
    179000   1.0426846      18.836169      278.28427    
    180000   1.0203814      18.935299      278.1374     
    181000   1.0009963      18.654658      278.27249    
    182000   0.9670445      18.573073      278.00385    
    183000   1.0463016      18.82112       277.8934     
    184000   1.0098566      19.143923      277.68676    
    185000   0.94870512     19.179522      277.53628    
    186000   1.0072207      19.710419      277.39075    
    187000   0.98830209     18.678746      277.22618    
    188000   0.93954831     18.759014      277.19181    
    189000   1.0108418      18.891284      276.97293    
    190000   1.0223145      18.916196      276.60574    
    191000   0.99261705     18.754421      276.39462    
    192000   0.99557897     19.150147      276.38355    
    193000   1.0340232      19.203444      276.29691    
    194000   0.98925805     19.084217      276.31555    
    195000   1.0098108      18.808842      276.15778    
    196000   0.98884345     19.118665      275.89071    
    197000   1.0092266      19.00722       275.60445    
    198000   0.99389327     19.17066       275.62814    
    199000   1.018825       18.912406      275.55768    
    200000   0.99937155     18.847479      275.41671    
    201000   0.9748412      19.43616       275.52622    
    202000   0.97838887     18.770596      275.42098    
    203000   0.9831198      18.849897      275.39853    
    204000   0.97347343     18.604656      275.39899    
    205000   1.0103426      18.78083       275.45658    
    206000   0.95826158     18.765769      275.26202    
    207000   1.0135315      19.075733      275.13113    
    208000   0.96960632     19.121196      275.00407    
    209000   0.99803479     18.903137      275.03058    
    210000   1.0122154      19.002745      275.15858    
    211000   0.99984476     19.312108      274.86068    
    212000   1.0212187      19.016672      274.68744    
    213000   1.0105457      19.124903      274.64805    
    214000   0.972699       18.758102      274.46837    
    215000   0.9816998      18.759768      274.28905    
    216000   0.98284596     18.830024      274.18234    
    217000   1.0302507      18.755736      274.08491    
    218000   0.98103997     19.041788      273.9769     
    219000   0.99870284     19.244495      273.90816    
    220000   1.0010994      19.293155      273.88939    
    221000   0.99929297     19.205358      273.65583    
    222000   1.0036213      18.742232      273.47382    
    223000   1.0047525      18.74931       273.27217    
    224000   1.0141262      19.361716      273.28391    
    225000   0.96292575     18.931011      273.10432    
    226000   1.003206       18.995593      273.09441    
    227000   0.96886869     18.867201      272.94197    
    228000   0.9949935      19.053033      272.7827     
    229000   1.0167673      18.934696      272.66579    
    230000   1.0353072      19.103845      272.53554    
    231000   1.0597604      19.077299      272.46595    
    232000   0.99613419     19.37619       272.28534    
    233000   0.98713485     18.928954      272.31664    
    234000   1.024517       19.172122      272.35844    
    235000   0.97110152     18.948001      272.40192    
    236000   1.0113464      19.042304      272.1885     
    237000   0.97028834     18.914511      272.07682    
    238000   1.023313       19.058656      272.14421    
    239000   0.95359363     18.673486      272.16927    
    240000   1.0464823      18.959651      271.964      
    241000   0.99900307     18.963155      271.87666    
    242000   0.98348941     19.374459      271.97181    
    243000   0.97972027     18.766139      272.03727    
    244000   0.99666515     19.134217      271.74371    
    245000   0.99933397     18.73665       271.62452    
    246000   1.021496       18.656159      271.56273    
    247000   0.97143402     19.033827      271.48886    
    248000   0.98177651     18.628153      271.30156    
    249000   0.99573045     18.959621      271.34626    
    250000   1.0143679      18.859936      271.15617    
    251000   1.0260037      19.133133      270.95623    
    252000   0.97584925     18.726288      270.67525    
    253000   1.0686954      18.768334      270.62567    
    254000   0.99543092     17.955867      270.37402    
    255000   1.0392404      19.011936      270.15473    
    256000   1.0382517      19.139758      270.30374    
    257000   1.0428745      18.920136      270.32515    
    258000   0.97382367     18.831636      270.1857     
    259000   1.0279844      19.422594      270.08792    
    260000   1.0084572      19.17619       269.94455    
    261000   0.97292716     18.702307      269.72928    
    262000   1.0252109      18.962573      269.88303    
    263000   0.97958447     18.816045      269.81773    
    264000   0.95611807     18.941084      269.77457    
    265000   1.0166133      19.338608      269.50577    
    266000   1.0098202      18.531091      269.60667    
    267000   0.98611237     18.710356      269.5233     
    268000   1.0007913      19.139422      269.51296    
    269000   1.0389366      19.258814      269.40765    
    270000   1.035373       18.676644      269.00021    
    271000   1.0214384      18.946099      268.91753    
    272000   0.99768231     19.346353      268.8355     
    273000   1.0224666      18.741022      268.59496    
    274000   0.95347143     18.864144      268.39612    
    275000   0.98512344     18.985987      268.25373    
    276000   0.98183123     18.80724       268.27205    
    277000   1.0522089      19.295978      267.94928    
    278000   0.99156353     18.489417      267.82626    
    279000   1.0338283      19.431975      267.53074    
    280000   1.0122096      18.902938      267.30085    
    281000   1.0276516      18.955049      267.31564    
    282000   1.0222789      19.224405      267.07725    
    283000   1.0042865      18.683679      266.97847    
    284000   1.0112608      19.125946      266.84343    
    285000   0.99488061     18.244952      266.77294    
    286000   1.0249562      18.628654      266.8791     
    287000   0.9832073      18.709393      266.78819    
    288000   0.9739488      18.729769      266.58363    
    289000   0.99664258     18.626733      266.47151    
    290000   0.99636419     19.23577       266.28973    
    291000   1.0273097      18.795364      266.32577    
    292000   0.98407168     18.803651      266.24642    
    293000   1.0354887      19.016233      266.17271    
    294000   1.0028073      19.046661      265.69932    
    295000   1.0313759      18.603694      265.58876    
    296000   0.99263894     19.333644      265.33177    
    297000   0.99933204     18.942071      265.23929    
    298000   1.0128583      19.217846      265.30114    
    299000   1.0099664      18.992298      265.17106    
    300000   1.0395298      18.981169      265.01261    
    301000   0.95903435     19.042683      264.88054    
    302000   0.96568209     18.899946      264.54851    
    303000   0.99212984     18.980169      264.30332    
    304000   0.96753175     18.861604      264.06256    
    305000   1.001654       19.140451      263.81682    
    306000   1.0045619      19.429314      263.9657     
    307000   1.0068802      18.966673      263.73106    
    308000   1.0365005      19.497486      263.72688    
    309000   1.0190483      19.120104      263.57309    
    310000   1.022035       19.211389      263.50975    
    311000   1.0115842      18.722367      263.37232    
    312000   1.0002344      19.188066      263.25038    
    313000   0.96454383     19.08721       263.2692     
    314000   1.0077205      19.016331      263.29725    
    315000   1.0320076      19.059452      263.21852    
    316000   0.98712928     18.851073      263.05409    
    317000   0.96353432     18.929168      263.09554    
    318000   0.99021902     18.949092      262.95008    
    319000   1.0017868      18.860799      262.68574    
    320000   0.98986823     18.801541      262.72039    
    321000   0.97409976     18.923337      262.60301    
    322000   0.9792708      18.766688      262.5152     
    323000   0.99377554     19.051254      262.50928    
    324000   1.024672       18.876717      262.35339    
    325000   1.0553288      19.621969      262.38367    
    326000   0.99472392     18.729616      262.29804    
    327000   1.0137549      18.394586      262.42922    
    328000   1.0025104      19.031683      262.35916    
    329000   0.9899787      19.006165      262.15624    
    330000   0.996617       18.828445      262.25227    
    331000   0.96463256     18.42207       262.14013    
    332000   1.0207164      18.950002      261.95366    
    333000   1.0139491      18.942501      261.76325    
    334000   1.0176325      19.155509      261.7309     
    335000   1.0194979      19.139905      261.50499    
    336000   0.99369873     19.101462      261.40386    
    337000   1.0116461      19.314783      261.26367    
    338000   0.97174972     18.829044      260.86759    
    339000   1.0005819      19.255194      260.86218    
    340000   1.064268       19.196134      260.75467    
    341000   1.0295215      18.618848      260.55807    
    342000   1.0070731      19.225847      260.32241    
    343000   0.97170559     19.104336      260.22289    
    344000   1.0134907      18.960284      260.05107    
    345000   1.0076941      19.41034       259.8968     
    346000   1.0314996      18.865195      259.98477    
    347000   1.0070349      18.798361      259.84023    
    348000   1.0126054      18.970033      259.82767    
    349000   0.99510833     18.748336      259.64387    
    350000   0.97888685     18.930899      259.55695    
    351000   1.0246565      19.129688      259.40527    
    352000   0.99534883     19.080667      259.32759    
    353000   1.024186       18.547189      259.26859    
    354000   0.98281078     18.951651      259.20713    
    355000   0.98237896     18.87704       259.11777    
    356000   0.97808988     18.956138      258.98781    
    357000   1.0078567      19.261772      259.00144    
    358000   0.99480582     18.690515      258.77262    
    359000   1.0579411      18.927379      258.48307    
    360000   0.97705052     18.93358       258.36373    
    361000   1.0202682      18.646933      258.34121    
    362000   1.0458127      19.141593      258.31041    
    363000   1.0379839      18.696678      258.33047    
    364000   1.0207816      19.243434      258.06419    
    365000   0.96696482     18.943227      257.64589    
    366000   0.98184865     18.367834      257.35015    
    367000   1.006923       18.805626      257.37042    
    368000   1.0097846      19.404193      257.06133    
    369000   0.97531879     19.085593      256.92598    
    370000   0.99921102     19.433754      256.76662    
    371000   0.96334301     19.303381      256.55983    
    372000   0.99600403     18.777496      256.56477    
    373000   1.0132077      19.419841      256.51543    
    374000   1.0125         18.852238      256.50098    
    375000   0.99373581     18.858149      256.44355    
    376000   1.0403956      18.861958      256.35109    
    377000   0.9656158      19.131468      256.25389    
    378000   0.96201379     18.934459      256.10105    
    379000   1.0079127      19.022504      255.9714     
    380000   0.98190277     19.1664        255.74638    
    381000   1.0024401      18.827948      255.76565    
    382000   1.0280139      19.277662      255.84988    
    383000   1.0172177      19.079063      255.71279    
    384000   0.96156828     19.423017      255.70607    
    385000   0.98883538     18.728758      255.74947    
    386000   0.99192278     18.572529      255.65069    
    387000   0.98894797     18.512517      255.36572    
    388000   0.99203105     18.860066      255.15379    
    389000   0.97054735     18.890997      255.11314    
    390000   1.0064341      18.95513       254.94336    
    391000   1.0149651      19.263523      254.84644    
    392000   0.96190392     18.894755      254.6452     
    393000   0.96031106     18.868421      254.35696    
    394000   1.0292528      18.861394      254.2547     
    395000   0.9908012      19.381001      254.15604    
    396000   0.95887278     19.229399      254.05185    
    397000   0.98962279     18.117553      253.96315    
    398000   1.0423435      19.558147      253.99209    
    399000   0.9890028      18.840401      253.73047    
    400000   0.99515134     18.833713      253.72214    
    401000   1.0525318      18.953849      253.55398    
    402000   1.0252072      18.786034      253.44692    
    403000   1.0046646      19.015021      253.38636    
    404000   1.0152984      18.509981      253.29568    
    405000   1.0338955      19.195539      253.35305    
    406000   1.0089214      18.716719      253.16619    
    407000   1.0215698      19.187612      253.04127    
    408000   1.0286652      19.235881      252.88901    
    409000   1.0337324      19.105034      252.73148    
    410000   0.97269431     18.97042       252.7569     
    411000   1.0087855      19.130123      252.74138    
    412000   0.975395       19.264764      252.77357    
    413000   1.0099208      18.839821      252.80896    
    414000   1.0398954      18.846744      252.82792    
    415000   1.0124519      19.021956      252.64464    
    416000   0.98811429     19.231196      252.65353    
    417000   1.0136985      19.26514       252.75629    
    418000   0.98012168     19.010245      252.67616    
    419000   1.0124857      18.881406      252.55774    
    420000   0.98167547     18.825724      252.46993    
    421000   0.97069783     19.368043      252.4705     
    422000   1.0027354      18.88871       252.3227     
    423000   1.0368671      18.879448      252.10528    
    424000   1.0590446      19.033457      251.90336    
    425000   1.0447902      18.824763      251.79795    
    426000   0.95635397     19.203296      251.62402    
    427000   1.0117602      19.116247      251.67075    
    428000   0.96985189     18.827315      251.74753    
    429000   0.98612305     19.122168      251.71343    
    430000   0.9925182      18.784216      251.48073    
    431000   0.97499218     19.187614      251.43263    
    432000   1.0136646      19.807126      251.47962    
    433000   1.0047003      19.424952      251.29941    
    434000   1.0512074      18.861016      251.26704    
    435000   1.0113778      18.822968      251.0377     
    436000   0.95814362     18.826332      250.97396    
    437000   1.0002254      18.830216      250.77743    
    438000   0.99913299     18.615011      250.78322    
    439000   1.0094905      19.420037      250.61164    
    440000   1.0091782      19.289188      250.66811    
    441000   0.98516732     19.309051      250.54055    
    442000   1.0115467      18.564709      250.47767    
    443000   1.0037625      19.003524      250.35431    
    444000   0.96609712     19.225235      250.2853     
    445000   0.98094368     19.045888      250.10249    
    446000   1.0016431      19.230019      249.97969    
    447000   0.99449071     18.662538      249.93798    
    448000   0.96507008     18.845753      249.60545    
    449000   0.99333216     19.0972        249.53674    
    450000   1.0181522      19.243777      249.5721     
    451000   1.0158198      19.070947      249.7918     
    452000   1.0134696      18.777605      249.61282    
    453000   1.0029395      18.926906      249.48315    
    454000   1.0043946      19.02779       249.48149    
    455000   0.99094284     18.913709      249.18174    
    456000   0.97827055     18.994955      248.87091    
    457000   0.94990498     18.839764      248.71909    
    458000   1.0030737      19.052895      248.35372    
    459000   1.0006603      18.989869      248.17341    
    460000   0.93127744     18.744101      248.13396    
    461000   1.0002495      19.378851      248.11174    
    462000   1.0399889      19.74986       248.12546    
    463000   0.99425594     18.972615      248.05841    
    464000   1.0184801      19.206862      247.98315    
    465000   0.99470448     18.670319      247.8003     
    466000   1.0295184      19.293161      247.65896    
    467000   1.0069036      18.878375      247.41572    
    468000   0.99632321     18.808739      247.13911    
    469000   1.0005189      19.359168      247.31397    
    470000   0.97679274     19.372789      247.20602    
    471000   0.97912091     19.157141      247.43732    
    472000   0.99324056     18.896814      247.53298    
    473000   1.0009652      19.224433      247.4871     
    474000   1.011089       18.516394      247.51374    
    475000   1.0017683      19.140094      247.38767    
    476000   1.004113       19.343703      247.30048    
    477000   0.99228432     18.563138      247.16641    
    478000   0.99515327     18.738426      247.03892    
    479000   0.99794403     18.819455      246.79371    
    480000   0.97741679     19.190263      246.68356    
    481000   0.97522438     18.551258      246.57132    
    482000   0.94972125     18.554199      246.65942    
    483000   1.0214661      19.008738      246.71816    
    484000   0.9784506      18.892777      246.48464    
    485000   1.003839       18.854176      246.44454    
    486000   0.97519504     18.941264      246.24928    
    487000   1.0445602      19.138763      246.28321    
    488000   1.0101982      18.868329      246.31196    
    489000   0.96242525     18.67921       246.14246    
    490000   1.0343372      18.659124      246.06458    
    491000   0.98391736     18.725807      246.07432    
    492000   1.029879       18.723794      245.80801    
    493000   1.0119749      19.277312      245.70136    
    494000   1.027347       18.572244      245.67168    
    495000   0.97330788     18.823556      245.59236    
    496000   1.0170012      19.166768      245.50362    
    497000   1.0054545      18.802842      245.43482    
    498000   1.0121037      18.531393      245.291      
    499000   0.97438049     18.613726      245.18724    
    500000   1.0144646      18.995841      245.06189    
    501000   1.0174395      18.742153      245.04646    
    502000   0.99798635     18.813092      245.03433    
    503000   1.0060282      18.423043      244.89009    
    504000   0.98319711     18.575175      244.79859    
    505000   0.98578875     19.031913      244.57411    
    506000   0.99355874     19.014895      244.43359    
    507000   0.9971227      18.926279      244.16676    
    508000   1.0002718      18.906753      243.9356     
    509000   0.99541264     18.709519      243.76113    
    510000   1.0132978      19.240848      243.68756    
    511000   0.99940455     19.331169      243.48073    
    512000   1.0103676      18.765445      243.63626    
    513000   1.000358       18.806796      243.66784    
    514000   1.0041401      18.966377      243.50695    
    515000   0.99639785     19.201206      243.30597    
    516000   1.0160037      19.030548      243.3545     
    517000   1.0120914      19.068298      243.17838    
    518000   0.96955894     18.516369      243.10173    
    519000   1.0054817      18.851096      242.94953    
    520000   0.97551937     18.957193      242.89356    
    521000   0.98285153     19.342917      242.92143    
    522000   1.0011478      19.028868      243.00859    
    523000   1.0468591      19.642794      242.77542    
    524000   1.0258333      19.146296      242.69414    
    525000   0.97839449     18.63122       242.61459    
    526000   1.0002652      18.942061      242.47741    
    527000   1.0064654      18.965814      242.42035    
    528000   1.001804       18.985343      242.16891    
    529000   1.0353175      18.958186      242.12121    
    530000   1.0152818      19.235413      242.30082    
    531000   0.99802526     19.013219      242.10246    
    532000   0.96370657     18.708787      241.85017    
    533000   0.98190697     18.994393      241.70834    
    534000   1.0129008      18.949148      241.81821    
    535000   0.98966916     18.789451      241.82584    
    536000   0.97773499     18.707323      241.75397    
    537000   1.0072422      18.913539      241.68339    
    538000   1.0199485      18.785109      241.67887    
    539000   0.98874709     18.658538      241.75152    
    540000   1.017318       18.558624      242.10601    
    541000   0.98655014     18.890491      241.99815    
    542000   1.0387517      18.711254      241.87473    
    543000   0.9638616      18.7257        241.53032    
    544000   1.0107902      18.846376      241.46015    
    545000   1.0097617      18.804594      241.16494    
    546000   0.96550853     18.384362      241.09265    
    547000   0.97869107     18.601436      241.00996    
    548000   0.98587919     19.039873      240.83033    
    549000   0.98577651     19.200099      240.77408    
    550000   1.0087587      19.056284      240.84304    
    551000   0.99263537     18.911206      240.69712    
    552000   0.95398097     18.267179      240.79786    
    553000   1.0302669      19.071847      240.46954    
    554000   0.93187903     18.850896      240.44329    
    555000   0.97858649     18.903879      240.36575    
    556000   0.98859248     18.449551      240.45552    
    557000   1.0327966      18.988699      240.279      
    558000   1.0139602      18.934634      240.23544    
    559000   1.0052293      19.255991      240.04982    
    560000   0.97443492     18.801845      240.06575    
    561000   1.022902       19.286593      239.81831    
    562000   1.0007042      19.231713      239.80062    
    563000   1.0007934      19.312224      239.69093    
    564000   0.97913605     18.839501      239.67138    
    565000   0.99120955     19.100619      239.35554    
    566000   0.97691508     18.898872      239.31048    
    567000   0.98702063     18.811752      239.17713    
    568000   1.059939       19.087596      239.22247    
    569000   1.0205642      19.307853      239.23308    
    570000   0.99570881     18.498821      239.15405    
    571000   0.99587492     18.750342      238.94263    
    572000   1.0079246      18.476258      239.03077    
    573000   1.0180252      19.675726      238.92059    
    574000   1.0185225      19.004074      238.81823    
    575000   0.98994869     18.465938      238.49844    
    576000   1.0320671      19.314727      238.6133     
    577000   0.98912118     18.788923      238.425      
    578000   1.0145318      18.392408      238.40784    
    579000   0.96561416     18.594788      238.39033    
    580000   1.0052269      19.178611      238.14288    
    581000   1.0047726      18.883939      238.00134    
    582000   1.0186386      19.235782      237.8573     
    583000   1.0161935      18.904946      237.78895    
    584000   0.96378007     18.70918       237.72625    
    585000   0.96002575     18.990703      237.70568    
    586000   1.0152557      19.371791      237.3743     
    587000   0.98233331     19.162764      237.15208    
    588000   0.9938942      18.624087      237.07738    
    589000   0.977181       19.053487      237.14859    
    590000   1.0319886      19.276901      237.12509    
    591000   1.0111494      19.38623       237.19782    
    592000   1.0083138      19.158298      237.13342    
    593000   0.95259817     18.889998      237.14091    
    594000   0.9918616      18.856422      237.01013    
    595000   1.0152738      18.507801      236.80218    
    596000   0.99549547     18.964538      236.8387     
    597000   1.0001359      18.873941      236.55183    
    598000   0.99695393     18.725938      236.61266    
    599000   1.0241955      19.223223      236.72584    
    600000   0.96517174     19.178291      236.62622    
    601000   0.96579099     18.580965      236.70036    
    602000   1.0449856      18.958145      236.57344    
    603000   1.0079212      19.479816      236.35467    
    604000   1.0137035      18.507685      236.24456    
    605000   0.98427442     18.746479      236.25088    
    606000   0.99753296     18.734186      236.21386    
    607000   1.0099652      18.556809      236.14282    
    608000   1.0053741      19.279847      236.13549    
    609000   1.0029267      19.24873       236.01283    
    610000   0.99612059     18.890633      235.82516    
    611000   0.97937289     18.888363      235.78263    
    612000   0.96573831     18.651453      235.57604    
    613000   0.99881164     18.714234      235.34386    
    614000   0.95798236     18.650809      235.3075     
    615000   1.0131385      18.771887      235.17619    
    616000   1.002184       18.353982      235.27297    
    617000   0.98789928     19.429575      235.393      
    618000   0.97711085     19.144689      235.45757    
    619000   0.991075       18.624665      235.29423    
    620000   1.012277       18.873904      235.07134    
    621000   0.96837246     18.67986       234.98353    
    622000   1.0091226      18.550532      234.83179    
    623000   1.0340502      19.095019      234.8252     
    624000   1.0278766      19.501857      234.72748    
    625000   0.97687515     19.02059       234.78687    
    626000   1.0064359      18.736736      234.6482     
    627000   0.96665124     18.671549      234.72602    
    628000   1.0152116      18.869077      234.46967    
    629000   1.0056663      18.884018      234.73444    
    630000   1.0241244      18.797887      234.4919     
    631000   0.98651173     18.401322      234.47236    
    632000   1.0010836      18.689504      234.49601    
    633000   0.97311918     18.536843      234.47446    
    634000   0.9894523      18.958449      234.40668    
    635000   0.98761925     19.227293      234.37444    
    636000   0.98298514     18.762582      234.3628     
    637000   1.0092665      18.874071      234.26098    
    638000   0.9909953      19.113225      234.35885    
    639000   1.0230246      19.291247      234.22501    
    640000   0.98333773     19.135386      234.03406    
    641000   1.0343956      19.559421      233.90107    
    642000   0.97435871     18.746541      233.87383    
    643000   1.0180379      18.715128      233.68626    
    644000   1.0135407      18.842142      233.79061    
    645000   1.0252996      19.211139      233.70821    
    646000   0.96958535     19.025441      233.6135     
    647000   0.99775072     18.965135      233.46273    
    648000   1.008828       18.628155      233.35884    
    649000   0.986709       18.617705      233.0677     
    650000   0.99071695     18.69226       232.90634    
    651000   0.99878498     18.762498      232.84908    
    652000   0.97781472     18.86608       232.71843    
    653000   1.0032549      19.193464      232.42392    
    654000   0.97381448     18.929954      232.43516    
    655000   1.0065075      19.048972      232.29212    
    656000   0.98802795     18.871152      232.33822    
    657000   0.98884325     18.950632      232.32215    
    658000   0.95877696     18.976436      232.35484    
    659000   1.0295166      18.506569      232.31093    
    660000   0.9865477      19.084504      232.38844    
    661000   1.0064705      19.114286      232.52478    
    662000   1.0301167      18.501984      232.35255    
    663000   1.0113384      19.152748      232.25364    
    664000   1.0028005      18.368579      232.20327    
    665000   1.0121198      18.802111      232.25026    
    666000   1.0224957      18.87123       232.19365    
    667000   0.99275759     18.55699       232.03942    
    668000   1.0223352      19.042921      231.76453    
    669000   1.031121       18.838302      231.72054    
    670000   1.0432148      19.431621      231.77262    
    671000   0.98054685     18.916171      231.74993    
    672000   1.0294772      18.79053       231.80152    
    673000   0.99545183     18.822541      231.67447    
    674000   1.0089715      18.875522      231.69401    
    675000   0.99280155     18.821307      231.59068    
    676000   1.0420459      18.711231      231.47877    
    677000   0.98373364     18.919588      231.23163    
    678000   0.9148571      18.385443      231.11947    
    679000   1.006673       18.923948      231.02694    
    680000   1.0323354      18.855142      231.00054    
    681000   1.0222872      18.78297       230.87159    
    682000   0.99932795     18.915451      230.83305    
    683000   1.0030566      18.87092       230.62962    
    684000   0.97917211     18.52547       230.5246     
    685000   0.9901883      18.676728      230.60029    
    686000   0.9914931      18.964038      230.386      
    687000   0.99363298     18.677039      230.23782    
    688000   0.98560108     18.515732      230.19605    
    689000   0.99917826     18.626276      230.10174    
    690000   1.0131209      19.066248      230.26612    
    691000   1.0074098      18.82945       230.03178    
    692000   0.95612502     18.922164      230.18538    
    693000   0.99667949     18.565953      230.37097    
    694000   0.98994944     18.472397      230.42219    
    695000   0.99348438     19.003655      230.39906    
    696000   1.0044924      18.908905      230.40936    
    697000   1.0186145      18.611032      230.3334     
    698000   1.0077316      19.048226      230.16271    
    699000   1.0161331      18.392032      230.15207    
    700000   1.0090743      18.880654      230.39174    
    701000   0.96991836     18.799045      230.28011    
    702000   1.0109582      18.748242      230.22376    
    703000   0.99674421     18.989566      230.2652     
    704000   1.0095422      18.834875      230.28423    
    705000   0.96197987     18.910172      230.25109    
    706000   1.0216043      19.160321      230.03677    
    707000   1.016734       19.185361      230.0524     
    708000   0.9672086      19.054619      230.01949    
    709000   1.0158741      19.073669      230.08705    
    710000   1.001368       18.555699      229.80593    
    711000   1.0098474      18.925492      229.6099     
    712000   1.0208164      18.724108      229.51915    
    713000   1.0017684      19.380425      229.44552    
    714000   0.96482167     18.868501      229.57863    
    715000   1.029658       18.691285      229.57106    
    716000   1.0307541      18.684459      229.63228    
    717000   1.022994       18.965238      229.51491    
    718000   0.98714679     18.690402      229.26226    
    719000   1.0596712      18.734862      229.26215    
    720000   0.99752626     19.124223      229.37768    
    721000   1.0081226      18.686906      229.34712    
    722000   1.0146552      19.019709      229.26754    
    723000   0.97597821     17.734534      229.15665    
    724000   1.002905       18.627196      228.92979    
    725000   0.96341144     18.900697      228.80975    
    726000   0.98873166     18.490904      228.68658    
    727000   0.99207808     18.942826      228.47469    
    728000   1.0114883      18.806608      228.41116    
    729000   0.97933631     18.577312      228.14666    
    730000   1.0174102      18.64607       228.0943     
    731000   0.98381255     18.646465      228.11816    
    732000   1.016513       18.703734      227.97934    
    733000   1.0291379      19.056043      227.79376    
    734000   1.0086943      18.894572      227.60912    
    735000   0.9499236      18.766149      227.49014    
    736000   0.98399155     18.655364      227.53391    
    737000   1.0148485      18.748627      227.51517    
    738000   1.0036635      18.650372      227.27829    
    739000   1.0117879      18.643615      227.04932    
    740000   0.99962382     18.818706      226.99825    
    741000   1.0021238      18.796279      226.56359    
    742000   1.0121231      18.866871      226.5228     
    743000   0.99274738     19.232183      226.22664    
    744000   0.97350877     18.361814      226.22903    
    745000   0.97414477     18.718463      226.09193    
    746000   1.0032511      19.097454      226.24773    
    747000   1.0041724      18.720083      226.01854    
    748000   1.0004411      18.535565      225.89956    
    749000   1.0112895      18.871389      225.86441    
    750000   1.0280302      19.032387      225.66809    
    751000   0.99496611     18.550588      225.55842    
    752000   1.0307432      19.034226      225.48074    
    753000   0.99810535     18.665632      225.27001    
    754000   1.0131899      18.827355      225.09933    
    755000   1.0151374      18.359221      224.90616    
    756000   0.99149327     18.902059      224.69672    
    757000   1.0251111      19.079218      224.20986    
    758000   0.97227797     18.601011      224.11551    
    759000   1.0347369      19.03081       224.12809    
    760000   0.99375775     18.809168      224.0076     
    761000   0.98238864     18.70351       223.9611     
    762000   1.0325799      19.077639      223.7551     
    763000   0.97662088     18.756834      223.71403    
    764000   0.99976573     18.246851      223.42858    
    765000   0.96543414     18.677985      223.48723    
    766000   1.0139905      19.167418      223.39508    
    767000   1.0268789      18.644158      223.14133    
    768000   0.97896953     18.700359      222.96236    
    769000   0.986073       18.763701      222.93788    
    770000   1.0047195      18.913936      222.90482    
    771000   0.98428663     18.505538      222.67896    
    772000   1.0211257      18.987671      222.56504    
    773000   1.0608719      18.957066      222.39565    
    774000   1.0118382      18.704938      222.35922    
    775000   1.0659404      18.575338      222.15442    
    776000   1.0425151      18.7316        222.0257     
    777000   1.0169251      18.320546      221.92099    
    778000   1.0292706      18.918286      222.04512    
    779000   1.0201989      18.495192      221.91516    
    780000   1.0071911      19.012004      221.60313    
    781000   0.96659275     18.758258      221.5054     
    782000   0.99017949     18.547724      221.56394    
    783000   0.98198074     18.524045      221.69149    
    784000   0.97060319     18.642201      221.60182    
    785000   0.99175896     18.713408      221.67648    
    786000   1.0020644      18.681002      221.85445    
    787000   1.0228981      18.694397      221.75495    
    788000   1.014548       18.637399      221.69734    
    789000   0.98118378     18.383479      221.48713    
    790000   1.0032618      18.737716      221.40759    
    791000   0.9919941      18.631021      221.29308    
    792000   0.96412969     18.490838      220.87259    
    793000   1.0728454      19.527996      220.81357    
    794000   1.0158986      18.892657      220.78043    
    795000   0.97105377     18.744956      220.66849    
    796000   1.0123497      18.901796      220.57437    
    797000   1.0031488      19.184771      220.6617     
    798000   1.0082645      19.144473      220.79768    
    799000   1.0108553      18.957412      220.57523    
    800000   0.98327124     18.350531      220.59233    
    801000   0.99374404     18.893707      220.62302    
    802000   0.9890535      18.751779      220.78061    
    803000   0.97318321     19.040431      220.83242    
    804000   0.98501907     18.922769      220.68833    
    805000   0.99711207     19.433935      220.6673     
    806000   0.97477999     18.624445      220.70856    
    807000   1.0324501      18.367347      220.31466    
    808000   1.0169845      18.682385      220.25001    
    809000   0.98084686     19.204501      220.2985     
    810000   0.99767226     19.16121       220.22006    
    811000   1.0059593      18.715173      220.24248    
    812000   0.98330946     18.558822      220.22386    
    813000   0.98538787     18.603805      220.06574    
    814000   1.0055836      19.231339      220.04716    
    815000   1.0069858      19.051647      219.99385    
    816000   0.99905125     18.692814      219.76532    
    817000   0.97511991     18.597098      219.59151    
    818000   0.96267434     18.100145      219.54184    
    819000   0.95040772     18.861374      219.52727    
    820000   1.0268042      18.470992      219.23611    
    821000   0.97683197     18.575195      219.07656    
    822000   0.96913453     18.629584      219.16102    
    823000   1.0338173      19.061809      219.09171    
    824000   1.00545        18.823998      218.80898    
    825000   0.99842394     19.052083      218.63994    
    826000   1.0304816      19.051574      218.53797    
    827000   1.0283946      18.830654      218.38711    
    828000   0.98600395     18.747902      218.42666    
    829000   1.0309889      19.582452      218.31522    
    830000   1.0378021      18.822373      218.07017    
    831000   1.0164523      19.326188      217.90107    
    832000   1.0342341      19.211864      217.91643    
    833000   0.98661329     18.707429      217.66562    
    834000   0.96796342     18.97464       217.59732    
    835000   0.97212056     19.033582      217.53703    
    836000   0.99463692     19.201153      217.44426    
    837000   1.0113891      18.707158      217.477      
    838000   0.99283589     18.685517      217.50716    
    839000   0.98903466     18.585405      217.34487    
    840000   1.0179862      18.631397      217.12139    
    841000   0.98589722     18.621115      216.98736    
    842000   1.0494816      19.037093      216.87397    
    843000   1.0243971      19.211649      216.72795    
    844000   1.0043711      18.61552       216.56709    
    845000   0.97420573     18.597035      216.55968    
    846000   1.0267199      18.646555      216.45957    
    847000   1.0027624      18.324051      216.34564    
    848000   1.0094401      19.285639      216.40957    
    849000   0.99420339     18.593312      216.32484    
    850000   0.97547878     18.403354      216.33503    
    851000   1.0175891      18.681942      216.31785    
    852000   1.0389749      18.769045      216.18768    
    853000   1.0438588      18.374379      215.99161    
    854000   0.95347719     18.814411      216.01613    
    855000   0.98885234     18.879054      216.04945    
    856000   1.01925        18.971799      216.11831    
    857000   0.97050362     18.61312       215.78623    
    858000   0.99623454     19.079184      215.49498    
    859000   0.98924472     18.783816      215.2451     
    860000   0.98458156     18.584503      215.03197    
    861000   0.98518139     18.973367      215.0242     
    862000   1.0242729      18.910232      215.01411    
    863000   1.0144828      18.70179       215.04207    
    864000   1.0130319      18.700203      215.06228    
    865000   0.97946087     19.144086      214.92425    
    866000   1.0131206      18.617251      214.91488    
    867000   0.98387962     18.571287      214.87284    
    868000   0.97297197     18.906653      214.74912    
    869000   1.0168546      18.803041      214.58503    
    870000   0.97512336     18.719224      214.35811    
    871000   0.99318814     18.653366      214.23837    
    872000   1.0107296      18.758869      213.97769    
    873000   1.0100888      19.063292      213.94573    
    874000   1.0015929      18.909235      213.97468    
    875000   1.0308422      18.883881      214.17377    
    876000   1.0281148      18.431457      214.17247    
    877000   0.98732186     19.00868       214.19832    
    878000   1.0038473      18.116833      214.00258    
    879000   1.0380142      19.177253      213.92956    
    880000   1.050914       18.891771      213.99147    
    881000   1.0013083      18.800712      213.99061    
    882000   0.99758697     18.731577      213.73193    
    883000   0.99314168     18.773188      213.66356    
    884000   0.99451427     18.465174      213.74851    
    885000   0.98878795     19.142557      213.54067    
    886000   0.97633639     18.369435      213.46396    
    887000   1.0206494      18.7945        213.53171    
    888000   1.0105345      18.462815      213.59598    
    889000   0.99767803     19.018577      213.70406    
    890000   1.0154328      18.720463      213.71861    
    891000   0.99303564     18.684293      213.78929    
    892000   1.0352218      19.19234       213.60926    
    893000   0.9844299      18.924534      213.72126    
    894000   1.0295785      18.93304       213.83466    
    895000   1.0340367      18.965291      213.66092    
    896000   0.98754647     18.715504      213.39215    
    897000   1.0099625      19.228216      213.38362    
    898000   0.99535269     18.818184      213.36247    
    899000   1.0155411      18.530519      213.37225    
    900000   1.0166742      18.915353      213.19211    
    901000   1.0140451      18.550739      213.14069    
    902000   1.0472923      18.935544      213.09085    
    903000   1.0359395      19.320582      212.93379    
    904000   1.0093573      18.805482      212.92834    
    905000   1.021727       19.214035      212.77022    
    906000   1.0251241      18.571688      212.8393     
    907000   1.0284642      18.639638      212.83071    
    908000   1.0164912      18.832699      212.85486    
    909000   0.93432386     18.373365      212.72346    
    910000   1.0158351      19.122095      212.84421    
    911000   1.0155318      19.49008       212.81988    
    912000   0.99259184     18.941784      212.9475     
    913000   1.0191712      18.814859      212.8644     
    914000   0.98368323     18.460215      212.68246    
    915000   1.0048339      18.585958      212.78561    
    916000   1.0237829      18.518892      212.95334    
    917000   1.0226539      18.808692      212.78664    
    918000   1.0182181      18.796601      212.85163    
    919000   1.0100876      19.159737      212.74935    
    920000   1.0107506      18.573531      212.73812    
    921000   1.0153172      18.743986      212.8037     
    922000   0.99788866     19.119005      212.89147    
    923000   0.99986658     18.827291      212.79076    
    924000   1.0237218      18.936609      212.49941    
    925000   0.98969934     18.547814      212.41449    
    926000   0.97220328     18.955527      212.51814    
    927000   1.0117115      18.265969      212.494      
    928000   1.0074433      18.763376      212.67824    
    929000   0.9788914      18.795691      212.75632    
    930000   0.97895504     18.649375      212.64394    
    931000   1.0064151      18.965642      212.72506    
    932000   1.0223294      19.020888      212.57904    
    933000   0.96695444     18.21032       212.69002    
    934000   0.99502513     18.367361      212.73564    
    935000   0.99092362     18.940575      212.59151    
    936000   0.96377388     18.587879      212.69125    
    937000   0.96135198     19.028541      212.49426    
    938000   1.0550843      18.960223      212.55907    
    939000   0.98253076     19.456721      212.58573    
    940000   0.998008       18.872292      212.63966    
    941000   0.99764704     18.396937      212.86449    
    942000   0.98681951     19.0599        213.16212    
    943000   0.99234736     18.871115      213.13382    
    944000   1.0117266      18.85243       212.85602    
    945000   0.99730235     18.649742      212.7782     
    946000   1.0062263      18.502304      212.849      
    947000   0.98724755     18.865667      212.56428    
    948000   0.9815612      18.502687      212.34448    
    949000   1.0251575      18.827541      212.16514    
    950000   1.0000469      18.413353      212.21108    
    951000   1.0013278      19.063868      212.33407    
    952000   0.99855906     18.83887       212.18179    
    953000   1.0168811      18.927828      212.11467    
    954000   1.0005547      18.628153      211.91498    
    955000   0.99581932     18.618494      212.12228    
    956000   0.97166434     18.946082      212.20136    
    957000   0.97574243     18.059039      212.23594    
    958000   0.97137747     18.498548      212.1601     
    959000   1.0014898      18.906158      212.31363    
    960000   0.99536206     19.0461        212.28954    
    961000   0.99244584     18.626589      212.10781    
    962000   1.005811       18.325601      212.00838    
    963000   1.006315       18.484629      211.95447    
    964000   1.0405774      19.30079       211.7471     
    965000   0.98691804     18.35984       211.48142    
    966000   0.99229592     18.831452      211.70596    
    967000   1.0156082      19.167426      211.47568    
    968000   1.0333256      18.888199      211.50327    
    969000   0.98517522     18.882278      211.44071    
    970000   1.0099853      18.449897      211.48649    
    971000   0.98969719     18.710929      211.63734    
    972000   1.0315717      18.62623       211.54854    
    973000   0.99734536     18.484036      211.58692    
    974000   1.0499583      18.823375      211.56266    
    975000   0.95036954     18.770833      211.46833    
    976000   0.99392188     19.204671      211.34872    
    977000   0.99306094     18.315219      210.98143    
    978000   0.98100098     18.483542      210.87528    
    979000   0.99626929     18.349488      210.86752    
    980000   0.98464223     18.552458      210.93225    
    981000   1.0004132      18.186228      210.70832    
    982000   0.98477915     18.51702       210.57899    
    983000   0.98569139     18.847089      210.57571    
    984000   0.98658094     19.052634      210.50321    
    985000   1.0240581      18.893647      210.37092    
    986000   1.0245096      19.081701      210.52477    
    987000   1.0237235      18.860917      210.4856     
    988000   1.0001048      18.657137      210.36383    
    989000   0.97558123     18.59738       210.4109     
    990000   0.94609461     18.898326      210.29548    
    991000   0.99188814     18.770338      210.28178    
    992000   0.95301168     18.750102      210.2025     
    993000   1.0521995      18.663657      210.00164    
    994000   1.0550781      18.56971       209.90083    
    995000   0.97635759     18.14805       209.8527     
    996000   1.0121582      18.814         209.81076    
    997000   0.98678009     18.858262      209.91844    
    998000   0.98500616     18.421121      209.88455    
    999000   0.98437166     18.861942      209.95051    
   1000000   0.96758444     18.587671      209.94549    
   1001000   0.97635125     18.201788      209.86059    
   1002000   0.9919647      18.873905      209.76483    
   1003000   1.0067645      18.768605      209.61744    
   1004000   0.98571637     18.550637      209.56846    
   1005000   0.9975063      18.839759      209.51316    
   1006000   1.0098931      18.284036      209.69129    
   1007000   0.97883287     18.809132      209.61611    
   1008000   0.95767186     18.596455      209.76636    
   1009000   0.97724509     18.590288      209.61915    
   1010000   1.0178007      18.854345      209.36233    
   1011000   0.99797485     18.47692       209.33018    
   1012000   0.99525038     19.062417      209.28128    
   1013000   0.97797859     18.950699      208.90673    
   1014000   0.98600195     18.67572       208.65312    
   1015000   0.99944532     18.716353      208.6694     
   1016000   0.98977749     18.990791      208.61956    
   1017000   0.99677965     18.895396      208.33973    
   1018000   0.96718545     18.687225      208.25792    
   1019000   1.0187518      18.663849      207.94917    
   1020000   0.98634672     18.757738      207.63441    
   1021000   0.99594455     19.571015      207.59409    
   1022000   0.98817933     18.671719      207.48033    
   1023000   0.99387849     18.513045      207.23888    
   1024000   1.0089729      18.512563      207.19314    
   1025000   0.99461718     18.872929      207.09491    
   1026000   1.0159294      18.967326      207.12605    
   1027000   0.98558532     18.543061      207.08944    
   1028000   1.0112335      18.390798      206.84866    
   1029000   0.99416909     18.242446      206.82724    
   1030000   0.98942685     19.089992      206.66358    
   1031000   1.0123748      18.923202      206.62962    
   1032000   1.007547       18.519435      206.66646    
   1033000   0.99311247     18.968683      206.61418    
   1034000   0.98016683     18.842772      206.62299    
   1035000   0.98760391     18.234134      206.42323    
   1036000   1.0244264      18.655136      206.35383    
   1037000   0.99773083     18.649369      206.21046    
   1038000   1.0045679      18.500526      206.18332    
   1039000   1.0316685      19.312541      206.35537    
   1040000   1.0180825      18.591022      206.16697    
   1041000   1.00394        18.524871      206.00755    
   1042000   0.97539244     18.885701      205.87723    
   1043000   0.98078505     18.223178      205.57929    
   1044000   1.0042107      18.363242      205.46873    
   1045000   0.96201563     18.557968      205.25008    
   1046000   0.99499107     18.485607      205.15742    
   1047000   1.0313359      18.346852      204.96819    
   1048000   1.0000128      18.612782      204.93897    
   1049000   0.99307606     18.52853       204.89784    
   1050000   0.99774598     18.233614      204.60965    
   1051000   1.0115328      19.028815      204.46039    
   1052000   1.0235136      18.623718      204.17934    
   1053000   0.99841279     18.379984      204.1008     
   1054000   0.98622227     18.554477      204.23265    
   1055000   0.98837417     18.828659      203.88868    
   1056000   1.0119603      18.540044      203.94115    
   1057000   0.97126852     19.061097      203.81431    
   1058000   0.97321637     18.339532      203.60484    
   1059000   1.0354634      19.175985      203.58762    
   1060000   0.98580923     18.870016      203.39519    
   1061000   0.99908751     19.247235      203.30843    
   1062000   1.0068486      18.614712      203.09972    
   1063000   0.97290932     19.114776      203.15143    
   1064000   1.0076161      18.566179      202.89428    
   1065000   1.0151673      18.208439      202.7741     
   1066000   0.95275229     18.765044      202.68574    
   1067000   1.0039581      18.932307      202.4254     
   1068000   0.97599278     18.84628       202.30119    
   1069000   1.0010995      18.878416      202.28982    
   1070000   0.95903806     18.694073      202.39312    
   1071000   1.0205621      18.764541      202.36673    
   1072000   0.95965791     18.655135      202.32307    
   1073000   1.0048682      18.762441      202.40425    
   1074000   0.9348706      18.606709      202.26615    
   1075000   1.0169894      18.20393       202.16228    
   1076000   1.0024116      18.581043      202.01297    
   1077000   1.0286786      19.015668      202.10931    
   1078000   1.0104848      18.145895      201.91217    
   1079000   0.99392559     19.208216      201.85151    
   1080000   0.97112098     18.88075       201.73127    
   1081000   1.0210504      18.891543      201.34118    
   1082000   0.99864807     18.72419       201.2211     
   1083000   1.0233788      19.005911      201.36891    
   1084000   0.98876579     18.382448      201.15858    
   1085000   0.99857879     19.043688      201.3339     
   1086000   1.0089435      18.781539      201.21852    
   1087000   1.0272933      18.75596       200.95697    
   1088000   0.99863755     18.717209      200.85631    
   1089000   0.98315836     19.009345      200.72697    
   1090000   1.0755965      18.428928      200.80398    
   1091000   0.97031605     18.673582      200.94592    
   1092000   0.95738749     18.406944      200.78821    
   1093000   0.98301283     18.660926      200.72394    
   1094000   0.99246535     18.255382      200.89217    
   1095000   1.0341667      18.57195       200.58624    
   1096000   1.0090632      18.604979      200.45385    
   1097000   1.0240351      18.642887      200.43298    
   1098000   0.97059514     18.083203      200.3287     
   1099000   1.0413434      18.978133      200.27165    
   1100000   1.0388157      19.175261      200.10282    
   1101000   1.0259823      18.577723      199.71718    
   1102000   1.0217413      18.630758      199.58732    
   1103000   0.99751828     18.371744      199.57825    
   1104000   1.0070957      18.488754      199.47854    
   1105000   0.97990707     18.931584      199.47831    
   1106000   0.9906899      18.656627      199.41486    
   1107000   0.99041517     18.654639      199.33267    
   1108000   1.0425133      19.021139      199.19133    
   1109000   0.99385265     18.581144      198.93004    
   1110000   1.0136063      18.50809       198.89165    
   1111000   0.96863793     18.537921      198.9351     
   1112000   1.0158995      18.342603      198.80989    
   1113000   1.0213039      18.586085      198.83636    
   1114000   1.0299867      18.63552       198.91431    
   1115000   1.0297612      18.359229      198.97184    
   1116000   1.0204267      19.136861      199.12615    
   1117000   1.004974       18.906555      199.28344    
   1118000   1.0157608      18.603618      199.40548    
   1119000   0.9889247      18.095422      199.38373    
   1120000   0.97284618     18.876964      199.32643    
   1121000   1.0161995      18.549         199.17692    
   1122000   1.0378545      18.215652      199.07718    
   1123000   1.0390711      18.702211      199.03287    
   1124000   0.99222794     18.404172      198.92529    
   1125000   1.0191592      18.579537      198.7788     
   1126000   1.0561654      18.8764        198.49026    
   1127000   1.0151812      18.690571      198.21971    
   1128000   1.0228588      18.712601      198.14987    
   1129000   0.986795       18.595206      197.94034    
   1130000   1.0041365      18.432437      197.83228    
   1131000   0.99457106     18.196173      197.89165    
   1132000   0.98499802     18.513589      197.85337    
   1133000   1.0046126      18.806676      197.78904    
   1134000   0.98877302     18.846698      197.82635    
   1135000   1.0066671      18.518255      197.73845    
   1136000   0.97309246     18.614173      197.69891    
   1137000   0.97885138     18.330153      197.492      
   1138000   0.95687668     18.719897      197.57854    
   1139000   0.9815744      18.652549      197.24777    
   1140000   1.0500413      18.581335      197.31706    
   1141000   0.97610289     18.53405       197.21658    
   1142000   0.95326712     18.733544      197.35936    
   1143000   0.99070122     18.5415        197.25274    
   1144000   0.9953691      18.80794       197.0815     
   1145000   1.007405       18.62281       196.99229    
   1146000   0.9917246      18.817453      197.09309    
   1147000   0.99262321     18.386127      197.05197    
   1148000   1.0394007      18.655887      197.09359    
   1149000   1.0086612      18.169755      197.03099    
   1150000   0.97504244     18.670506      196.98468    
   1151000   1.0012127      18.374946      196.90873    
   1152000   0.99514159     18.365285      196.87118    
   1153000   0.98205775     18.662116      196.90976    
   1154000   0.98732343     18.819165      196.89838    
   1155000   1.0260736      18.786271      196.8803     
   1156000   0.98614231     18.505936      196.81769    
   1157000   0.96436169     18.45308       196.72187    
   1158000   0.99998443     18.75122       196.8189     
   1159000   0.99352932     18.660727      196.89269    
   1160000   1.0052183      18.771372      196.99228    
   1161000   1.045955       18.659172      197.16541    
   1162000   1.0094399      18.358634      197.04971    
   1163000   1.021483       18.586096      196.93557    
   1164000   1.032338       19.070573      196.92532    
   1165000   1.0164305      18.372428      196.69274    
   1166000   0.9770804      18.572636      196.29037    
   1167000   1.0236802      18.775855      196.39034    
   1168000   1.0036254      18.453374      196.30445    
   1169000   0.98260686     18.462785      196.01901    
   1170000   0.99148835     18.774317      195.96276    
   1171000   0.98296784     18.612316      195.82965    
   1172000   1.0105778      18.47259       195.75523    
   1173000   0.95521033     18.263319      195.85569    
   1174000   1.0155206      18.715776      195.70026    
   1175000   0.98129108     18.224581      195.77212    
   1176000   0.95164737     18.970633      195.78887    
   1177000   1.0037504      18.38359       195.95183    
   1178000   0.99872367     18.773934      195.65821    
   1179000   1.054717       18.934336      195.80113    
   1180000   0.99879106     18.831315      195.76359    
   1181000   1.0134536      18.652686      195.74592    
   1182000   0.99671889     18.624823      195.53975    
   1183000   0.97499406     18.087864      195.3263     
   1184000   1.042719       18.709384      195.27678    
   1185000   1.0205349      18.286537      195.05639    
   1186000   1.0121056      18.364066      194.66608    
   1187000   1.01095        18.951036      194.49806    
   1188000   0.99773896     18.627741      194.24127    
   1189000   0.97732532     18.832059      194.10616    
   1190000   1.001345       18.477037      194.0329     
   1191000   1.0160204      18.897566      193.89219    
   1192000   1.0089756      18.439364      193.82131    
   1193000   1.0059373      18.799891      193.84095    
   1194000   0.98032096     18.376054      193.72432    
   1195000   1.0225595      18.736218      193.68348    
   1196000   1.0146119      18.892929      193.58259    
   1197000   1.0139264      18.604207      193.38369    
   1198000   0.99803338     18.821376      193.57458    
   1199000   0.96848202     18.391912      193.48452    
   1200000   0.99410533     18.143244      193.39094    
   1201000   1.0253963      18.762127      193.4615     
   1202000   0.99220297     18.545439      193.25441    
   1203000   0.9824764      19.117541      193.14698    
   1204000   1.0341146      18.897206      193.28041    
   1205000   1.0318905      18.903567      193.20998    
   1206000   1.0030635      18.204742      193.32012    
   1207000   0.97054172     18.798191      193.02333    
   1208000   0.99510652     18.57076       192.84735    
   1209000   1.0166044      18.390611      192.88855    
   1210000   0.96713853     18.908007      192.9314     
   1211000   0.9820394      18.455957      192.91594    
   1212000   0.9838564      18.53549       193.08193    
   1213000   1.0170486      18.652217      193.01358    
   1214000   1.0246825      18.041283      192.99564    
   1215000   0.99172057     18.348365      193.01914    
   1216000   1.0005079      18.838359      193.15846    
   1217000   1.009101       18.353918      193.07459    
   1218000   1.0494857      18.766477      192.95454    
   1219000   0.96032495     18.455469      192.89336    
   1220000   0.99867695     18.349765      192.82363    
   1221000   0.99112914     18.524941      192.71748    
   1222000   1.0122768      18.844247      192.64811    
   1223000   0.9788303      18.745895      192.53331    
   1224000   1.0022082      18.276654      192.43482    
   1225000   0.97341088     18.530538      192.57204    
   1226000   0.98434779     18.194346      192.41062    
   1227000   0.99764805     18.520345      192.45193    
   1228000   1.0197827      18.718227      192.27648    
   1229000   1.0125782      18.577555      192.2598     
   1230000   1.016557       18.323884      192.40036    
   1231000   0.9733707      18.162072      192.4784     
   1232000   1.0263825      18.330582      192.65082    
   1233000   0.97429225     18.68765       192.55478    
   1234000   1.0365648      19.107225      192.35306    
   1235000   1.0136364      18.822855      192.35449    
   1236000   1.049655       18.613276      192.30015    
   1237000   1.0023483      18.452787      192.09903    
   1238000   1.0175383      18.836501      191.94707    
   1239000   0.99529765     18.635541      191.83479    
   1240000   1.036871       18.93348       191.74585    
   1241000   1.0184657      18.412349      191.6047     
   1242000   0.97362297     18.492883      191.62349    
   1243000   1.0441798      18.664888      191.55599    
   1244000   0.96369592     18.527911      191.53993    
   1245000   0.9922753      18.363014      191.63318    
   1246000   0.99899996     18.403909      191.52775    
   1247000   0.99766411     18.664028      191.46463    
   1248000   1.0400158      18.473427      191.39662    
   1249000   0.99692812     18.541993      191.50581    
   1250000   0.99620497     18.681782      191.4335     
   1251000   0.97751388     18.333499      191.49619    
   1252000   1.0148293      18.161026      191.47009    
   1253000   1.010338       18.387519      191.31437    
   1254000   1.0219719      18.491442      191.01987    
   1255000   1.0192491      18.914512      190.80292    
   1256000   0.96763804     18.152261      190.80227    
   1257000   1.0135504      18.95736       190.7292     
   1258000   1.0328571      18.844259      190.66997    
   1259000   0.98995128     18.674665      190.42329    
   1260000   0.99718801     18.618544      190.22743    
   1261000   0.97078673     18.080949      190.15433    
   1262000   1.0030194      18.873183      189.91157    
   1263000   1.0512986      18.366621      189.78322    
   1264000   1.0170831      18.394308      189.73184    
[...]
   3835000   0.9990741      17.17362       28.580522    
   3836000   0.97915511     16.983481      28.546103    
   3837000   1.0124529      16.800934      28.404224    
   3838000   1.006442       17.066556      28.307468    
   3839000   0.99570846     16.981812      28.178395    
   3840000   1.0206705      17.200859      28.150931    
   3841000   1.0215889      16.915457      28.235404    
   3842000   1.0512857      16.895014      28.135619    
   3843000   1.0091806      17.067867      28.122611    
   3844000   1.0247668      17.444932      28.066009    
   3845000   1.0125757      17.186412      27.900569    
   3846000   1.0255843      17.197356      27.995506    
   3847000   1.0034801      16.792399      28.124173    
   3848000   1.0150802      17.130536      27.960425    
   3849000   0.99422453     16.899619      27.764199    
   3850000   1.0287089      16.434758      27.708493    
   3851000   0.95775715     17.013412      27.811071    
   3852000   1.0210957      17.267996      27.619339    
   3853000   0.98901062     17.386854      27.816241    
   3854000   0.99750655     17.796997      28.011817    
   3855000   0.97650076     16.66936       28.015327    
   3856000   0.98442491     16.742274      27.806768    
   3857000   1.0032432      17.658363      27.672987    
   3858000   1.0302371      17.430923      27.502348    
   3859000   0.99054545     17.450045      27.371146    
   3860000   1.014312       17.061213      27.442623    
   3861000   0.97805921     16.939061      27.388778    
   3862000   0.99908541     17.136594      27.152262    
   3863000   1.0186222      17.695804      27.239074    
   3864000   0.99257476     17.061276      27.216987    
   3865000   1.0331874      17.606949      26.933427    
   3866000   0.99354909     17.168815      26.800062    
   3867000   0.99851213     16.907266      26.530359    
   3868000   1.0217967      17.459654      26.651428    
   3869000   0.98377403     17.250338      26.68233     
   3870000   1.0051866      17.536325      26.845415    
   3871000   0.98927069     16.742299      26.848363    
   3872000   0.98198149     16.965437      26.789683    
   3873000   0.9856289      17.589337      26.803423    
   3874000   1.0098798      17.281099      26.749924    
   3875000   1.0332258      17.136233      26.534324    
   3876000   1.030423       17.425489      26.347717    
   3877000   0.96634281     16.882363      26.402547    
   3878000   1.0253542      17.433663      26.45294     
   3879000   1.0053268      16.836631      26.225688    
   3880000   1.0195097      16.967079      26.417456    
   3881000   1.0116111      17.346832      26.402539    
   3882000   0.96705374     17.077243      26.323998    
   3883000   1.0294068      17.124395      26.080481    
   3884000   1.0094302      17.565864      25.873159    
   3885000   1.0243894      17.132636      25.778863    
   3886000   0.95921051     17.246007      25.968053    
   3887000   1.0135453      16.783472      26.036548    
   3888000   1.0276212      16.992516      25.906077    
   3889000   1.013233       16.867877      25.973256    
   3890000   1.0448302      17.659179      25.949911    
   3891000   1.0150288      17.233149      26.222706    
   3892000   0.98287625     16.896184      26.133729    
   3893000   0.99671462     17.375132      26.083986    
   3894000   1.0306553      17.271684      26.11302     
   3895000   1.0340314      17.664144      25.966502    
   3896000   1.0158478      17.074316      26.155072    
   3897000   1.0043499      17.072377      25.875832    
   3898000   1.0188074      17.237735      25.727553    
   3899000   0.97286823     16.557152      25.635978    
   3900000   1.0544208      17.18989       25.673312    
   3901000   0.98945711     17.430174      25.554696    
   3902000   0.98299553     17.117625      25.369727    
   3903000   1.0479323      16.898704      25.367463    
   3904000   0.99100294     17.116096      25.2899      
   3905000   1.0301018      17.215579      25.451738    
   3906000   0.98203775     17.46134       25.428398    
   3907000   1.0453222      17.208385      25.213143    
   3908000   1.0155234      17.403002      24.981236    
   3909000   0.95239733     16.79277       24.821662    
   3910000   1.0086523      17.298162      24.684241    
   3911000   1.0099308      17.304816      24.798479    
   3912000   1.0026818      16.582584      24.75483     
   3913000   1.0091469      17.141285      24.911015    
   3914000   0.98331124     17.115264      24.770562    
   3915000   0.99331242     17.391215      24.713804    
   3916000   1.0213008      17.681662      24.606212    
   3917000   1.0017359      16.92825       24.549557    
   3918000   0.96614202     16.806172      24.517667    
   3919000   1.0016898      17.387899      24.696161    
   3920000   1.0122633      17.956524      24.753633    
   3921000   1.0019145      17.464453      24.597043    
   3922000   1.0422357      17.66574       24.528186    
   3923000   0.99529334     17.338857      24.522615    
   3924000   0.97141968     17.055642      24.426497    
   3925000   0.99001371     16.644857      24.38781     
   3926000   0.98879172     16.695171      24.209791    
   3927000   0.99998506     17.084816      24.231301    
   3928000   0.98461878     17.079899      24.061393    
   3929000   1.02428        16.646241      24.002965    
   3930000   0.93045667     16.8867        23.855955    
   3931000   1.0519577      17.273263      23.946919    
   3932000   1.0250604      17.469589      23.867905    
   3933000   1.0096966      17.006567      23.85394     
   3934000   0.97002192     17.267393      23.828025    
   3935000   1.0432292      17.983703      24.057404    
   3936000   0.97680124     17.490501      23.966432    
   3937000   0.99883082     16.88958       24.09391     
   3938000   1.0439263      17.276788      23.990961    
   3939000   0.99510428     17.428516      23.993792    
   3940000   0.99763733     17.349093      23.956061    
   3941000   1.0051357      17.762174      23.780242    
   3942000   0.97294905     16.980101      23.868191    
   3943000   1.0227467      17.0679        23.796362    
   3944000   1.0606571      17.703854      23.594391    
   3945000   0.99629146     16.825213      23.382895    
   3946000   1.0180288      16.758607      23.476918    
   3947000   0.98129547     17.015298      23.471634    
   3948000   0.9919436      17.109245      23.322281    
   3949000   0.97610285     16.617658      23.400225    
   3950000   1.0358035      17.633587      23.353805    
   3951000   0.97613716     17.110669      23.122344    
   3952000   1.012012       17.095926      22.953942    
   3953000   1.0157639      17.129804      22.829249    
   3954000   0.98814843     16.769573      22.754617    
   3955000   0.9988925      16.789859      22.616072    
   3956000   1.0054349      17.10824       22.566333    
   3957000   1.0102093      17.427587      22.497696    
   3958000   1.0114066      17.363482      22.235653    
   3959000   1.0391694      17.244449      21.961107    
   3960000   0.98122729     16.84275       22.067271    
   3961000   1.0255138      16.916165      21.9608      
   3962000   0.99211857     16.655881      21.722761    
   3963000   0.96027211     17.01757       21.810743    
   3964000   1.0020013      17.221256      21.870744    
   3965000   0.98597744     17.210959      21.916759    
   3966000   0.99989455     17.470069      21.89408     
   3967000   0.99488063     16.558956      22.036493    
   3968000   1.0126337      17.227524      21.895966    
   3969000   1.0241173      17.266552      21.860522    
   3970000   1.018297       17.069716      21.869861    
   3971000   1.0130394      16.987436      21.839906    
   3972000   0.97265865     16.712585      21.838654    
   3973000   1.0050766      17.380131      21.732882    
   3974000   0.96456631     17.036104      21.584909    
   3975000   1.0004824      17.715852      21.649353    
   3976000   1.0271507      17.371949      21.519794    
   3977000   0.99256291     17.648772      21.306135    
   3978000   0.98483288     17.155584      21.28197     
   3979000   1.0002452      17.222415      21.152876    
   3980000   1.0167213      16.561091      21.111225    
   3981000   0.99189794     17.980718      20.759149    
   3982000   0.99722379     16.951867      20.409154    
   3983000   0.97907824     17.100572      20.383928    
   3984000   0.98753984     17.33808       20.167895    
   3985000   0.9895224      16.979428      20.198204    
   3986000   1.0297395      16.900485      20.161322    
   3987000   1.0050037      17.122975      19.978252    
   3988000   0.99954702     16.918427      20.009182    
   3989000   0.97980285     17.097255      19.891782    
   3990000   1.0111978      17.224458      20.051902    
   3991000   0.99333649     16.527714      19.866508    
   3992000   1.0153653      17.4295        19.775427    
   3993000   0.96658148     17.322485      19.768946    
   3994000   1.0433839      17.086431      19.621027    
   3995000   0.99949127     17.009045      19.64203     
   3996000   0.98979295     17.538941      19.678557    
   3997000   1.0161057      17.158331      19.754487    
   3998000   0.9677077      16.691234      19.608153    
   3999000   1.0181813      16.893994      19.545495    
   4000000   1.0205725      17.549339      19.534876    
   4001000   1.0091074      17.04709       19.129589    
   4002000   0.98505175     16.731076      19.263381    
   4003000   1.0248846      17.402468      19.312941    
   4004000   1.0143073      16.854478      19.343488    
   4005000   0.98533384     16.878649      19.216048    
   4006000   1.007091       16.921733      18.978423    
   4007000   0.97255118     17.167873      18.820352    
   4008000   1.0041733      17.203625      18.858342    
   4009000   0.98038461     16.951615      18.920424    
   4010000   1.0234009      17.248201      18.757986    
   4011000   0.99873147     17.345189      18.735017    
   4012000   1.0365618      16.283903      18.506053    
   4013000   1.021337       17.14588       18.357731    
   4014000   0.99831773     17.606408      18.224144    
   4015000   0.96903624     17.234362      18.16071     
   4016000   1.0717188      17.101827      18.156382    
   4017000   1.0089439      17.075579      18.124481    
   4018000   1.017316       17.069251      18.154767    
   4019000   1.0093816      17.025103      18.105968    
   4020000   0.99672263     17.146223      17.909077    
   4021000   1.0349385      16.996777      17.743066    
   4022000   1.0560012      17.410658      17.667535    
   4023000   1.0426369      17.748898      17.500719    
   4024000   0.96868305     17.664839      17.481471    
   4025000   0.97769066     16.682507      17.374218    
   4026000   1.0201385      17.040712      17.397478    
   4027000   1.0099102      17.280595      17.388162    
   4028000   1.0019348      17.06991       17.498846    
   4029000   0.99538332     17.908987      17.394682    
   4030000   1.0289127      17.308624      17.449721    
   4031000   0.99328517     17.498664      17.428339    
   4032000   0.9836048      17.374663      17.259714    
   4033000   1.0305616      17.417268      17.018127    
   4034000   0.99693894     17.242108      17.033283    
   4035000   0.98749608     16.879689      17.067075    
   4036000   1.0142312      17.135396      17.130421    
   4037000   0.98741336     17.123174      17.078167    
   4038000   0.98847826     17.234036      16.940718    
   4039000   0.99810417     17.160121      16.878318    
   4040000   0.99445093     17.043488      16.883622    
   4041000   1.0091574      16.737309      16.635076    
   4042000   1.0261502      17.262472      16.511581    
   4043000   1.0012675      17.533497      16.516094    
   4044000   0.97536502     17.460417      16.563285    
   4045000   1.0136388      16.780936      16.550252    
   4046000   1.0284768      17.234736      16.330379    
   4047000   1.0457225      16.659464      16.323197    
   4048000   0.97947377     17.074267      16.320979    
   4049000   0.9901267      16.730017      16.067907    
   4050000   1.0432181      17.181158      16.08684     
   4051000   1.0357381      17.114199      15.908137    
   4052000   1.0119998      17.606489      15.799698    
   4053000   1.0073438      17.27544       15.769051    
   4054000   1.0091267      16.967092      15.559924    
   4055000   0.99091518     17.2468        15.46972     
   4056000   1.0061237      17.027198      15.411116    
   4057000   0.99609968     16.995964      15.443958    
   4058000   0.99637842     16.917335      15.567876    
   4059000   0.96821011     17.317294      15.497535    
   4060000   0.9886231      16.55934       15.257818    
   4061000   1.0126189      16.928613      15.236594    
   4062000   1.0151601      17.453457      15.255936    
   4063000   0.9988488      16.991901      15.220722    
   4064000   1.0055555      16.668447      15.355364    
   4065000   1.001568       16.738201      15.148087    
   4066000   1.0142076      16.953367      14.968447    
   4067000   1.0233412      17.124305      14.90393     
   4068000   1.009879       17.73881       14.773175    
   4069000   0.98541052     16.722567      14.667325    
   4070000   0.9881534      17.227958      14.649138    
   4071000   1.0193771      17.017502      14.605657    
   4072000   0.98743301     16.905204      14.472471    
   4073000   0.97813108     17.128949      14.401368    
   4074000   1.0082042      17.410674      14.288838    
   4075000   1.0089969      17.440499      14.16716     
   4076000   1.004013       17.366525      14.043308    
   4077000   1.0412643      17.520324      14.014864    
   4078000   1.0134545      16.868346      13.827492    
   4079000   1.0464107      17.231476      13.773077    
   4080000   1.0097966      17.555902      13.689957    
   4081000   0.98323043     16.573106      13.640647    
   4082000   0.98565315     16.877104      13.654687    
   4083000   1.0084288      17.331407      13.764615    
   4084000   1.0514288      16.884111      13.670251    
   4085000   1.0243583      17.132669      13.729035    
   4086000   1.0206329      17.710863      13.565295    
   4087000   1.0067764      17.483994      13.585704    
   4088000   1.0038342      16.689103      13.477613    
   4089000   1.0384213      17.468261      13.334781    
   4090000   0.98530532     16.941287      13.298225    
   4091000   0.99063241     17.346105      13.077763    
   4092000   0.99538947     17.113849      13.025086    
   4093000   1.006906       16.769565      12.823308    
   4094000   1.0202102      17.173856      12.681043    
   4095000   1.0020224      16.690017      12.513185    
   4096000   1.0036557      17.2124        12.228627    
   4097000   1.0071949      16.882505      12.232778    
   4098000   0.99450536     16.765666      12.067652    
   4099000   1.0305577      17.414457      12.04877     
   4100000   1.0168372      17.01586       11.985614    
   4101000   0.98661229     16.839814      11.857172    
   4102000   1.0357089      17.290968      11.649067    
   4103000   0.98031289     16.913353      11.563844    
   4104000   1.0324626      16.953093      11.3912      
   4105000   1.0137876      17.221847      11.328655    
   4106000   0.93618676     16.568096      11.267535    
   4107000   0.97512117     16.75615       11.263217    
   4108000   0.98855395     16.91933       11.360402    
   4109000   1.0146825      17.251427      11.043713    
   4110000   1.0100967      17.017421      10.927361    
   4111000   0.98415719     16.990126      10.741172    
   4112000   1.0128838      17.112246      10.657357    
   4113000   0.93898284     16.774309      10.752726    
   4114000   0.99613633     16.969394      10.775759    
   4115000   0.95882914     17.18401       10.858512    
   4116000   1.0144376      16.477551      10.932414    
   4117000   1.0159911      16.564471      10.660819    
   4118000   1.0449285      17.040468      10.490365    
   4119000   0.98217895     16.854602      10.384162    
   4120000   1.0444616      16.916334      10.382195    
   4121000   0.99027718     17.708801      10.269426    
   4122000   1.0086292      17.044794      10.223625    
   4123000   1.0119312      17.340609      10.255584    
   4124000   0.98634359     16.739841      10.173404    
   4125000   1.0229912      16.709879      10.101765    
   4126000   1.0203765      17.109485      10.173013    
   4127000   0.99359545     16.464751      10.287861    
   4128000   0.99422429     17.228601      10.277507    
   4129000   1.0013603      17.195659      10.254865    
   4130000   0.98885824     16.708568      10.154591    
   4131000   0.97570328     16.794841      10.167382    
   4132000   0.98908299     16.960844      10.057801    
   4133000   1.0024214      17.09918       9.9617689    
   4134000   0.98086479     16.933608      10.012558    
   4135000   1.0345311      17.275986      9.9608258    
   4136000   0.96300176     16.704307      9.8565714    
   4137000   1.0206798      16.64803       9.9198753    
   4138000   1.021577       17.163154      9.9387344    
   4139000   1.0071525      17.070973      9.7435186    
   4140000   0.99357885     17.188099      9.4565494    
   4141000   0.95290686     16.645599      9.36562      
   4142000   1.0285318      17.568155      9.3065258    
   4143000   1.0008495      16.781735      9.1830726    
   4144000   0.98399819     16.941653      9.0388669    
   4145000   1.0009314      16.741953      8.8912407    
   4146000   1.0194847      16.724128      8.6387935    
   4147000   1.023611       17.293373      8.5902866    
   4148000   0.97056657     16.68251       8.5005507    
   4149000   1.0123819      17.17735       8.5820409    
   4150000   0.97222736     16.765574      8.4027764    
   4151000   1.054292       17.573333      8.2521281    
   4152000   0.98615096     16.934924      8.0327885    
   4153000   1.014402       16.877195      7.8524195    
   4154000   0.99026299     16.894288      7.6012779    
   4155000   0.98111864     16.934224      7.5867765    
   4156000   0.99501294     16.956956      7.3050101    
   4157000   1.0059264      17.335419      7.1224591    
Fix halt condition for fix-id 3 met on step 4158000 with value 6.961661865996188 (src/fix_halt.cpp:237)
   4158000   1.0032399      17.055765      6.9616619    
Loop time of 8717.91 on 2 procs for 4058000 steps with 1200 atoms

Performance: 402173.310 tau/day, 465.478 timesteps/s
124.7% CPU use with 1 MPI tasks x 2 OpenMP threads

MPI task timing breakdown:
Section |  min time  |  avg time  |  max time  |%varavg| %total
---------------------------------------------------------------
Pair    | 1657.1     | 1657.1     | 1657.1     |   0.0 | 19.01
Bond    | 127.54     | 127.54     | 127.54     |   0.0 |  1.46
Neigh   | 6638.6     | 6638.6     | 6638.6     |   0.0 | 76.15
Comm    | 2.1946     | 2.1946     | 2.1946     |   0.0 |  0.03
Output  | 12.221     | 12.221     | 12.221     |   0.0 |  0.14
Modify  | 255.79     | 255.79     | 255.79     |   0.0 |  2.93
Other   |            | 24.47      |            |       |  0.28

Nlocal:           1200 ave        1200 max        1200 min
Histogram: 1 0 0 0 0 0 0 0 0 0
Nghost:              0 ave           0 max           0 min
Histogram: 1 0 0 0 0 0 0 0 0 0
Neighs:         289645 ave      289645 max      289645 min
Histogram: 1 0 0 0 0 0 0 0 0 0

Total # of neighbors = 289645
Ave neighs/atom = 241.37083
Ave special neighs/atom = 1.9983333
Neighbor list builds = 40322
Dangerous builds = 0

# This simulation is done
# Move onto the next one
clear
  using 2 OpenMP thread(s) per MPI task
package omp 0
using multi-threaded neighbor list subroutines
next f
jump SELF

Total wall time: 9:07:10
