ITEM: TIMESTEP
0
ITEM: NUMBER OF ATOMS
301
ITEM: BOX BOUNDS pp pp pp
-1.0000000000000000e+03 1.0000000000000000e+03
-1.0000000000000000e+03 1.0000000000000000e+03
-1.0000000000000000e+03 1.0000000000000000e+03
ITEM: ATOMS id x y z ix iy iz
1 0.00000 0.00000 0.00000 0 0 0
2 0.00000 0.00000 1.00000 0 0 0
3 0.00000 -0.50000 1.86603 0 0 0
4 0.00000 0.00000 2.73205 0 0 0
5 0.00000 -0.50000 3.59808 0 0 0
6 0.00000 0.00000 4.46410 0 0 0
7 0.00000 -0.50000 5.33013 0 0 0
8 0.00000 0.00000 6.19615 0 0 0
9 0.00000 -0.50000 7.06218 0 0 0
10 0.00000 0.00000 7.92820 0 0 0
11 0.00000 -0.50000 8.79423 0 0 0
12 0.00000 0.00000 9.66025 0 0 0
13 0.00000 -0.50000 10.52628 0 0 0
14 0.00000 0.00000 11.39230 0 0 0
15 0.00000 -0.50000 12.25833 0 0 0
16 0.00000 0.00000 13.12436 0 0 0
17 0.00000 -0.50000 13.99038 0 0 0
18 0.00000 0.00000 14.85641 0 0 0
19 0.00000 -0.50000 15.72243 0 0 0
20 0.00000 0.00000 16.58846 0 0 0
21 0.00000 -0.50000 17.45448 0 0 0
22 0.00000 0.00000 18.32051 0 0 0
23 0.00000 -0.50000 19.18653 0 0 0
24 0.00000 0.00000 20.05256 0 0 0
25 0.00000 -0.50000 20.91858 0 0 0
26 0.00000 0.00000 21.78461 0 0 0
27 0.00000 -0.50000 22.65064 0 0 0
28 0.00000 0.00000 23.51666 0 0 0
29 0.00000 -0.50000 24.38269 0 0 0
30 0.00000 0.00000 25.24871 0 0 0
31 0.00000 -0.50000 26.11474 0 0 0
32 -0.37800 0.08094 26.83559 0 0 0
33 -0.75600 0.22362 27.75033 0 0 0
34 -1.13400 1.08715 28.08414 0 0 0
35 -1.51200 1.22983 28.99889 0 0 0
36 -1.88999 2.09337 29.33269 0 0 0
37 -2.26799 2.23605 30.24744 0 0 0
38 -2.64599 3.09958 30.58125 0 0 0
39 -3.02399 3.24226 31.49599 0 0 0
40 -3.40199 4.10580 31.82980 0 0 0
41 -3.77999 4.24848 32.74454 0 0 0
42 -4.15799 5.11201 33.07835 0 0 0
43 -4.53599 5.25469 33.99309 0 0 0
44 -4.91398 6.11823 34.32690 0 0 0
45 -5.29198 6.26091 35.24165 0 0 0
46 -5.66998 7.12444 35.57545 0 0 0
47 -6.04798 7.26712 36.49020 0 0 0
48 -6.42598 8.13066 36.82401 0 0 0
49 -6.80398 8.27334 37.73875 0 0 0
50 -7.18198 9.13687 38.07256 0 0 0
51 -7.55998 9.27955 38.98730 0 0 0
52 -7.93797 10.14309 39.32111 0 0 0
53 -8.31597 10.28577 40.23586 0 0 0
54 -8.69397 11.14930 40.56966 0 0 0
55 -9.07197 11.29198 41.48441 0 0 0
56 -9.44997 12.15552 41.81821 0 0 0
57 -9.82797 12.29820 42.73296 0 0 0
58 -10.20597 13.16173 43.06677 0 0 0
59 -10.58397 13.30441 43.98151 0 0 0
60 -10.96196 14.16795 44.31532 0 0 0
61 -11.33996 14.31063 45.23006 0 0 0
62 0.93684 -0.75733 26.35162 0 0 0
63 1.87368 -1.09862 26.42810 0 0 0
64 2.81052 -1.20303 26.76191 0 0 0
65 3.74736 -1.54432 26.83839 0 0 0
66 4.68421 -1.64873 27.17219 0 0 0
67 5.62105 -1.99002 27.24868 0 0 0
68 6.55789 -2.09443 27.58248 0 0 0
69 7.49473 -2.43572 27.65896 0 0 0
70 8.43157 -2.54013 27.99277 0 0 0
71 9.36841 -2.88142 28.06925 0 0 0
72 10.30525 -2.98583 28.40306 0 0 0
73 11.24209 -3.32712 28.47954 0 0 0
74 12.17894 -3.43153 28.81335 0 0 0
75 13.11578 -3.77282 28.88983 0 0 0
76 14.05262 -3.87723 29.22364 0 0 0
77 14.98946 -4.21852 29.30012 0 0 0
78 15.92630 -4.32293 29.63392 0 0 0
79 16.86314 -4.66422 29.71041 0 0 0
80 17.79998 -4.76863 30.04421 0 0 0
81 18.73682 -5.10992 30.12069 0 0 0
82 19.67367 -5.21433 30.45450 0 0 0
83 20.61051 -5.55562 30.53098 0 0 0
84 21.54735 -5.66003 30.86479 0 0 0
85 22.48419 -6.00132 30.94127 0 0 0
86 23.42103 -6.10573 31.27508 0 0 0
87 24.35787 -6.44702 31.35156 0 0 0
88 25.29471 -6.55143 31.68537 0 0 0
89 26.23155 -6.89272 31.76185 0 0 0
90 27.16840 -6.99713 32.09565 0 0 0
91 28.10524 -7.33842 32.17214 0 0 0
92 -0.55884 -1.32432 26.02426 0 0 0
93 -1.11768 -1.99297 25.53374 0 0 0
94 -1.67653 -2.75209 25.86755 0 0 0
95 -2.23537 -3.42074 25.37703 0 0 0
96 -2.79421 -4.17986 25.71084 0 0 0
97 -3.35305 -4.84851 25.22032 0 0 0
98 -3.91190 -5.60763 25.55413 0 0 0
99 -4.47074 -6.27628 25.06361 0 0 0
100 -5.02958 -7.03540 25.39742 0 0 0
101 -5.58842 -7.70405 24.90690 0 0 0
102 -6.14727 -8.46317 25.24071 0 0 0
103 -6.70611 -9.13182 24.75020 0 0 0
104 -7.26495 -9.89094 25.08400 0 0 0
105 -7.82379 -10.55959 24.59349 0 0 0
106 -8.38264 -11.31871 24.92729 0 0 0
107 -8.94148 -11.98736 24.43678 0 0 0
108 -9.50032 -12.74648 24.77058 0 0 0
109 -10.05916 -13.41513 24.28007 0 0 0
110 -10.61801 -14.17425 24.61387 0 0 0
111 -11.17685 -14.84290 24.12336 0 0 0
112 -11.73569 -15.60202 24.45716 0 0 0
113 -12.29453 -16.27067 23.96665 0 0 0
114 -12.85338 -17.02979 24.30045 0 0 0
115 -13.41222 -17.69844 23.80994 0 0 0
116 -13.97106 -18.45756 24.14374 0 0 0
117 -14.52990 -19.12621 23.65323 0 0 0
118 -15.08875 -19.88533 23.98703 0 0 0
119 -15.64759 -20.55398 23.49652 0 0 0
120 -16.20643 -21.31310 23.83032 0 0 0
121 -16.76527 -21.98175 23.33981 0 0 0
122 -16.54487 -21.95002 22.36492 0 0 0
123 -16.32446 -21.43509 21.53650 0 0 0
124 -16.10405 -21.89505 20.67636 0 0 0
125 -15.88364 -21.38012 19.84794 0 0 0
126 -15.66323 -21.84008 18.98779 0 0 0
127 -15.44282 -21.32515 18.15938 0 0 0
128 -15.22241 -21.78512 17.29923 0 0 0
129 -15.00200 -21.27019 16.47082 0 0 0
130 -14.78159 -21.73015 15.61067 0 0 0
131 -14.56118 -21.21522 14.78226 0 0 0
132 -14.34078 -21.67518 13.92211 0 0 0
133 -14.12037 -21.16025 13.09370 0 0 0
134 -13.89996 -21.62022 12.23355 0 0 0
135 -13.67955 -21.10529 11.40514 0 0 0
136 -13.45914 -21.56525 10.54499 0 0 0
137 -13.23873 -21.05032 9.71658 0 0 0
138 -13.01832 -21.51028 8.85643 0 0 0
139 -12.79791 -20.99535 8.02802 0 0 0
140 -12.57750 -21.45532 7.16787 0 0 0
141 -12.35709 -20.94039 6.33945 0 0 0
142 -12.13669 -21.40035 5.47931 0 0 0
143 -11.91628 -20.88542 4.65089 0 0 0
144 -11.69587 -21.34538 3.79075 0 0 0
145 -11.47546 -20.83045 2.96233 0 0 0
146 -11.25505 -21.29042 2.10218 0 0 0
147 -11.03464 -20.77549 1.27377 0 0 0
148 -10.81423 -21.23545 0.41362 0 0 0
149 -10.59382 -20.72052 -0.41479 0 0 0
150 -10.37341 -21.18048 -1.27494 0 0 0
151 -10.15301 -20.66555 -2.10335 0 0 0
152 -17.73330 -21.76697 23.46937 0 0 0
153 -18.70133 -21.64574 23.68897 0 0 0
154 -19.66936 -21.39495 23.69379 0 0 0
155 -20.63739 -21.27373 23.91339 0 0 0
156 -21.60542 -21.02293 23.91821 0 0 0
157 -22.57345 -20.90171 24.13781 0 0 0
158 -23.54148 -20.65092 24.14262 0 0 0
159 -24.50951 -20.52969 24.36222 0 0 0
160 -25.47754 -20.27890 24.36704 0 0 0
161 -26.44557 -20.15768 24.58664 0 0 0
162 -27.41360 -19.90689 24.59145 0 0 0
163 -28.38162 -19.78566 24.81105 0 0 0
164 -29.34965 -19.53487 24.81587 0 0 0
165 -30.31768 -19.41365 25.03547 0 0 0
166 -31.28571 -19.16285 25.04029 0 0 0
167 -32.25374 -19.04163 25.25989 0 0 0
168 -33.22177 -18.79084 25.26470 0 0 0
169 -34.18980 -18.66961 25.48430 0 0 0
170 -35.15783 -18.41882 25.48912 0 0 0
171 -36.12586 -18.29760 25.70872 0 0 0
172 -37.09389 -18.04681 25.71353 0 0 0
173 -38.06192 -17.92558 25.93313 0 0 0
174 -39.02995 -17.67479 25.93795 0 0 0
175 -39.99797 -17.55356 26.15755 0 0 0
176 -40.96600 -17.30277 26.16237 0 0 0
177 -41.93403 -17.18155 26.38197 0 0 0
178 -42.90206 -16.93076 26.38678 0 0 0
179 -43.87009 -16.80953 26.60638 0 0 0
180 -44.83812 -16.55874 26.61120 0 0 0
181 -45.80615 -16.43752 26.83080 0 0 0
182 -16.57729 -22.89787 23.69392 0 0 0
183 -16.38931 -23.86830 23.54253 0 0 0
184 -16.20132 -24.48462 24.30726 0 0 0
185 -16.01334 -25.45506 24.15587 0 0 0
186 -15.82536 -26.07138 24.92060 0 0 0
187 -15.63737 -27.04182 24.76921 0 0 0
188 -15.44939 -27.65814 25.53393 0 0 0
189 -15.26140 -28.62858 25.38255 0 0 0
190 -15.07342 -29.24490 26.14727 0 0 0
191 -14.88544 -30.21533 25.99589 0 0 0
192 -14.69745 -30.83166 26.76061 0 0 0
193 -14.50947 -31.80209 26.60922 0 0 0
194 -14.32148 -32.41842 27.37395 0 0 0
195 -14.13350 -33.38885 27.22256 0 0 0
196 -13.94552 -34.00517 27.98729 0 0 0
197 -13.75753 -34.97561 27.83590 0 0 0
198 -13.56955 -35.59193 28.60063 0 0 0
199 -13.38157 -36.56237 28.44924 0 0 0
200 -13.19358 -37.17869 29.21397 0 0 0
201 -13.00560 -38.14913 29.06258 0 0 0
202 -12.81761 -38.76545 29.82730 0 0 0
203 -12.62963 -39.73588 29.67592 0 0 0
204 -12.44165 -40.35221 30.44064 0 0 0
205 -12.25366 -41.32264 30.28926 0 0 0
206 -12.06568 -41.93897 31.05398 0 0 0
207 -11.87769 -42.90940 30.90259 0 0 0
208 -11.68971 -43.52572 31.66732 0 0 0
209 -11.50173 -44.49616 31.51593 0 0 0
210 -11.31374 -45.11248 32.28066 0 0 0
211 -11.12576 -46.08292 32.12927 0 0 0
212 -11.79254 -46.45535 31.48375 0 0 0
213 -12.45931 -46.45513 30.73849 0 0 0
214 -13.12609 -47.10043 30.36567 0 0 0
215 -13.79286 -47.10021 29.62041 0 0 0
216 -14.45964 -47.74551 29.24759 0 0 0
217 -15.12642 -47.74529 28.50233 0 0 0
218 -15.79319 -48.39059 28.12951 0 0 0
219 -16.45997 -48.39037 27.38425 0 0 0
220 -17.12675 -49.03567 27.01143 0 0 0
221 -17.79352 -49.03545 26.26617 0 0 0
222 -18.46030 -49.68075 25.89335 0 0 0
223 -19.12708 -49.68053 25.14809 0 0 0
224 -19.79385 -50.32583 24.77527 0 0 0
225 -20.46063 -50.32561 24.03002 0 0 0
226 -21.12741 -50.97091 23.65719 0 0 0
227 -21.79418 -50.97068 22.91194 0 0 0
228 -22.46096 -51.61599 22.53912 0 0 0
229 -23.12773 -51.61576 21.79386 0 0 0
230 -23.79451 -52.26106 21.42104 0 0 0
231 -24.46129 -52.26084 20.67578 0 0 0
232 -25.12806 -52.90614 20.30296 0 0 0
233 -25.79484 -52.90592 19.55770 0 0 0
234 -26.46162 -53.55122 19.18488 0 0 0
235 -27.12839 -53.55100 18.43962 0 0 0
236 -27.79517 -54.19630 18.06680 0 0 0
237 -28.46195 -54.19608 17.32154 0 0 0
238 -29.12872 -54.84138 16.94872 0 0 0
239 -29.79550 -54.84116 16.20346 0 0 0
240 -30.46228 -55.48646 15.83064 0 0 0
241 -31.12905 -55.48624 15.08538 0 0 0
242 -11.19193 -46.57512 32.99724 0 0 0
243 -11.25810 -47.43535 33.50282 0 0 0
244 -11.32427 -47.42763 34.50060 0 0 0
245 -11.39043 -48.28786 35.00618 0 0 0
246 -11.45660 -48.28014 36.00396 0 0 0
247 -11.52277 -49.14037 36.50954 0 0 0
248 -11.58894 -49.13265 37.50732 0 0 0
249 -11.65511 -49.99289 38.01290 0 0 0
250 -11.72128 -49.98516 39.01067 0 0 0
251 -11.78745 -50.84540 39.51626 0 0 0
252 -11.85362 -50.83767 40.51403 0 0 0
253 -11.91979 -51.69791 41.01962 0 0 0
254 -11.98596 -51.69018 42.01739 0 0 0
255 -12.05212 -52.55042 42.52298 0 0 0
256 -12.11829 -52.54269 43.52075 0 0 0
257 -12.18446 -53.40293 44.02633 0 0 0
258 -12.25063 -53.39520 45.02411 0 0 0
259 -12.31680 -54.25544 45.52969 0 0 0
260 -12.38297 -54.24771 46.52747 0 0 0
261 -12.44914 -55.10795 47.03305 0 0 0
262 -12.51531 -55.10022 48.03083 0 0 0
263 -12.58148 -55.96046 48.53641 0 0 0
264 -12.64765 -55.95273 49.53419 0 0 0
265 -12.71381 -56.81297 50.03977 0 0 0
266 -12.77998 -56.80524 51.03755 0 0 0
267 -12.84615 -57.66548 51.54313 0 0 0
268 -12.91232 -57.65776 52.54091 0 0 0
269 -12.97849 -58.51799 53.04649 0 0 0
270 -13.04466 -58.51027 54.04427 0 0 0
271 -13.11083 -59.37050 54.54985 0 0 0
272 -10.20456 -46.19010 31.75523 0 0 0
273 -9.28337 -46.09589 31.37770 0 0 0
274 -8.36217 -46.37574 31.10736 0 0 0
275 -7.44097 -46.28154 30.72984 0 0 0
276 -6.51978 -46.56138 30.45949 0 0 0
277 -5.59858 -46.46718 30.08197 0 0 0
278 -4.67738 -46.74702 29.81163 0 0 0
279 -3.75619 -46.65282 29.43411 0 0 0
280 -2.83499 -46.93266 29.16376 0 0 0
281 -1.91380 -46.83846 28.78624 0 0 0
282 -0.99260 -47.11830 28.51590 0 0 0
283 -0.07140 -47.02410 28.13838 0 0 0
284 0.84979 -47.30394 27.86803 0 0 0
285 1.77099 -47.20974 27.49051 0 0 0
286 2.69219 -47.48958 27.22017 0 0 0
287 3.61338 -47.39538 26.84264 0 0 0
288 4.53458 -47.67522 26.57230 0 0 0
289 5.45577 -47.58102 26.19478 0 0 0
290 6.37697 -47.86086 25.92444 0 0 0
291 7.29817 -47.76666 25.54691 0 0 0
292 8.21936 -48.04650 25.27657 0 0 0
293 9.14056 -47.95230 24.89905 0 0 0
294 10.06176 -48.23214 24.62870 0 0 0
295 10.98295 -48.13794 24.25118 0 0 0
296 11.90415 -48.41778 23.98084 0 0 0
297 12.82535 -48.32358 23.60332 0 0 0
298 13.74654 -48.60342 23.33297 0 0 0
299 14.66774 -48.50922 22.95545 0 0 0
300 15.58893 -48.78906 22.68511 0 0 0
301 16.51013 -48.69486 22.30759 0 0 0
ITEM: TIMESTEP
1000
ITEM: NUMBER OF ATOMS
301
ITEM: BOX BOUNDS pp pp pp
-1.0000000000000000e+03 1.0000000000000000e+03
-1.0000000000000000e+03 1.0000000000000000e+03
-1.0000000000000000e+03 1.0000000000000000e+03
ITEM: ATOMS id x y z ix iy iz
1 1.65606 -1.83552 3.08757 0 0 0
2 1.10596 -2.18996 3.81997 0 0 0
3 0.79168 -2.17530 4.75435 0 0 0
4 0.12948 -1.97322 5.52230 0 0 0
5 -0.46716 -1.92892 6.37184 0 0 0
6 -0.69182 -1.60220 7.25054 0 0 0
7 -1.38486 -1.35470 7.80721 0 0 0
8 -0.71493 -1.74225 8.35626 0 0 0
9 0.03165 -1.93075 8.93776 0 0 0
10 -0.20045 -1.48135 9.71524 0 0 0
11 -0.21287 -0.78297 10.37507 0 0 0
12 0.15283 -1.13044 11.29157 0 0 0
13 -0.29016 -2.05696 11.40257 0 0 0
14 -1.09786 -2.13700 12.04295 0 0 0
15 -1.57312 -1.45522 12.58450 0 0 0
16 -1.67778 -1.67847 13.52244 0 0 0
17 -1.92763 -1.32105 14.41331 0 0 0
18 -1.30060 -1.35437 15.20280 0 0 0
19 -1.02230 -1.09196 16.10414 0 0 0
20 -0.78402 -1.24046 17.07619 0 0 0
21 -0.47813 -1.17437 18.01393 0 0 0
22 -0.68676 -0.71841 18.85934 0 0 0
23 -0.76293 -0.60826 19.79637 0 0 0
24 -0.87266 -0.77028 20.75307 0 0 0
25 -1.50295 -1.00734 21.48063 0 0 0
26 -0.90692 -1.02351 22.27826 0 0 0
27 -0.69992 -1.01920 23.19967 0 0 0
28 -0.87360 -1.11592 24.17907 0 0 0
29 -0.48721 -1.84924 24.75168 0 0 0
30 -0.62707 -1.64818 25.80547 0 0 0
31 -0.54908 -1.42287 26.75072 0 0 0
32 -0.70150 -0.49707 27.03593 0 0 0
33 -0.59796 -0.07623 27.87011 0 0 0
34 -1.22752 0.26728 28.47785 0 0 0
35 -1.26332 0.91311 29.19702 0 0 0
36 -1.11636 1.93440 29.02569 0 0 0
37 -1.51706 2.24961 29.86931 0 0 0
38 -1.76702 2.89035 30.56557 0 0 0
39 -2.15783 3.26387 31.38151 0 0 0
40 -2.29766 3.12796 32.29441 0 0 0
41 -2.93965 3.59458 32.83187 0 0 0
42 -3.49145 3.51307 33.58452 0 0 0
43 -4.02977 4.11494 34.06886 0 0 0
44 -4.77751 4.47448 34.58957 0 0 0
45 -5.02928 5.45445 34.70352 0 0 0
46 -5.95457 5.99753 34.96643 0 0 0
47 -5.98086 6.61669 35.71437 0 0 0
48 -6.40789 7.20819 36.32750 0 0 0
49 -6.93936 7.36859 37.08830 0 0 0
50 -7.42249 8.25239 37.32455 0 0 0
51 -7.58928 8.77931 38.06175 0 0 0
52 -7.88178 8.72396 38.97006 0 0 0
53 -7.95946 9.41554 39.65940 0 0 0
54 -8.02517 9.70620 40.57462 0 0 0
55 -8.11542 10.06168 41.51979 0 0 0
56 -8.20289 10.32178 42.43899 0 0 0
57 -9.07871 10.10561 42.80573 0 0 0
58 -9.89364 9.76924 43.16162 0 0 0
59 -10.13079 9.55030 44.03624 0 0 0
60 -10.69874 10.24073 44.45105 0 0 0
61 -10.98920 10.91672 45.09190 0 0 0
62 0.40937 -1.44197 26.41246 0 0 0
63 1.34069 -1.44750 25.98494 0 0 0
64 2.30794 -1.46686 25.95453 0 0 0
65 2.92625 -2.07712 26.49414 0 0 0
66 3.65754 -2.45883 27.11091 0 0 0
67 4.60429 -2.79141 26.87072 0 0 0
68 5.32928 -3.27435 27.29357 0 0 0
69 6.32851 -3.08801 27.44815 0 0 0
70 7.25952 -3.27395 27.82634 0 0 0
71 8.03313 -3.16547 28.41183 0 0 0
72 8.83996 -3.57250 28.13575 0 0 0
73 9.51308 -3.80580 27.50290 0 0 0
74 10.35134 -4.20021 27.19720 0 0 0
75 11.25060 -4.66529 27.33356 0 0 0
76 11.88608 -5.37322 27.47207 0 0 0
77 12.81496 -5.02874 27.59616 0 0 0
78 13.55048 -5.18478 28.26902 0 0 0
79 14.27902 -5.03606 28.92139 0 0 0
80 15.25842 -4.94518 29.22758 0 0 0
81 16.21776 -4.99532 29.39638 0 0 0
82 17.16148 -4.58917 29.49603 0 0 0
83 17.80368 -4.68481 30.28117 0 0 0
84 18.43179 -5.20053 30.86846 0 0 0
85 19.10068 -4.52806 31.19944 0 0 0
86 20.00263 -4.58169 30.65954 0 0 0
87 20.48891 -5.12302 29.98698 0 0 0
88 21.44522 -5.33610 29.69696 0 0 0
89 21.76266 -4.43962 30.21875 0 0 0
90 21.91536 -3.67304 29.63271 0 0 0
91 21.40045 -3.39181 30.40878 0 0 0
92 -1.11043 -2.24879 26.85352 0 0 0
93 -1.83949 -2.96993 26.88814 0 0 0
94 -1.51197 -3.59484 26.27437 0 0 0
95 -2.04555 -4.27329 25.57464 0 0 0
96 -2.43694 -5.12496 25.53507 0 0 0
97 -2.96379 -6.00717 25.48849 0 0 0
98 -3.37961 -6.90359 25.48877 0 0 0
99 -3.94310 -7.50351 25.86669 0 0 0
100 -4.84040 -7.79815 25.78400 0 0 0
101 -5.56773 -8.52968 25.85351 0 0 0
102 -5.75291 -9.27501 25.28348 0 0 0
103 -6.14912 -10.19033 25.23969 0 0 0
104 -6.84455 -10.76580 24.81895 0 0 0
105 -7.72176 -10.58029 24.29415 0 0 0
106 -8.03478 -11.49148 24.51203 0 0 0
107 -8.76836 -12.09838 24.34760 0 0 0
108 -9.44116 -12.86993 24.37620 0 0 0
109 -10.28753 -13.27095 24.55714 0 0 0
110 -11.07961 -13.62377 24.98754 0 0 0
111 -11.40012 -14.49267 24.78660 0 0 0
112 -11.98531 -15.28538 24.59605 0 0 0
113 -12.06023 -16.25280 24.26035 0 0 0
114 -12.62849 -17.11955 24.50460 0 0 0
115 -13.13854 -17.87313 24.29537 0 0 0
116 -13.95038 -18.36241 24.59990 0 0 0
117 -14.93050 -18.56430 24.29869 0 0 0
118 -15.35457 -19.29996 23.72619 0 0 0
119 -15.77588 -20.23186 23.60915 0 0 0
120 -16.50578 -20.69432 23.23330 0 0 0
121 -17.20630 -21.35423 22.96428 0 0 0
122 -17.12953 -21.57393 21.91766 0 0 0
123 -16.63345 -21.09533 21.21645 0 0 0
124 -16.21271 -21.45379 20.39699 0 0 0
125 -15.99238 -21.61644 19.51038 0 0 0
126 -16.15245 -20.83688 18.88346 0 0 0
127 -15.46976 -20.39239 18.45797 0 0 0
128 -14.73732 -20.66120 17.79050 0 0 0
129 -15.02787 -20.89146 16.83440 0 0 0
130 -14.54114 -21.38563 16.08513 0 0 0
131 -14.34072 -22.15089 15.52919 0 0 0
132 -13.55382 -22.21197 14.93050 0 0 0
133 -13.09783 -21.64252 14.31099 0 0 0
134 -12.52795 -22.42504 13.80702 0 0 0
135 -12.40304 -22.61300 12.83491 0 0 0
136 -12.00140 -21.94626 12.20215 0 0 0
137 -11.70924 -22.18417 11.33369 0 0 0
138 -11.52117 -21.74785 10.33435 0 0 0
139 -12.42995 -21.39699 10.62433 0 0 0
140 -12.74510 -21.34780 9.76757 0 0 0
141 -13.11938 -21.07094 8.82177 0 0 0
142 -12.80870 -20.99327 7.91338 0 0 0
143 -12.10366 -20.48177 7.51770 0 0 0
144 -11.57237 -19.85505 6.84752 0 0 0
145 -11.20142 -20.01557 5.92198 0 0 0
146 -10.86979 -20.05631 4.96549 0 0 0
147 -10.94567 -20.62960 4.20717 0 0 0
148 -11.39985 -21.28516 3.68796 0 0 0
149 -11.07715 -21.31838 2.79072 0 0 0
150 -11.44456 -22.18415 2.71146 0 0 0
151 -11.29545 -22.37302 1.75877 0 0 0
152 -17.97677 -21.42802 23.46628 0 0 0
153 -18.73257 -21.64085 24.08910 0 0 0
154 -19.64517 -21.31677 24.42508 0 0 0
155 -20.57025 -21.19242 24.12899 0 0 0
156 -21.45163 -21.15888 24.33020 0 0 0
157 -22.41916 -21.13599 24.33140 0 0 0
158 -23.35030 -21.40116 24.30366 0 0 0
159 -24.24322 -21.71917 24.08442 0 0 0
160 -25.19037 -21.78600 23.74775 0 0 0
161 -26.04778 -21.59448 24.14407 0 0 0
162 -26.88562 -21.26021 24.39931 0 0 0
163 -27.40317 -20.50616 24.74131 0 0 0
164 -27.89066 -19.66745 25.14287 0 0 0
165 -28.72992 -19.19549 25.27813 0 0 0
166 -29.01524 -18.92139 26.16003 0 0 0
167 -29.87929 -18.51235 26.22887 0 0 0
168 -30.64967 -18.15353 26.69184 0 0 0
169 -31.27499 -17.38173 26.66860 0 0 0
170 -32.19117 -17.73175 26.61198 0 0 0
171 -33.01277 -17.78705 27.10513 0 0 0
172 -33.97061 -17.63379 27.29511 0 0 0
173 -34.92118 -17.85835 26.91801 0 0 0
174 -35.08000 -18.24127 27.82326 0 0 0
175 -36.04796 -18.28648 27.90801 0 0 0
176 -36.99263 -18.76308 27.83898 0 0 0
177 -37.99128 -18.90877 27.96954 0 0 0
178 -38.73887 -18.48864 28.37892 0 0 0
179 -39.35081 -17.80410 28.01727 0 0 0
180 -39.92878 -17.32256 28.64225 0 0 0
181 -40.81216 -17.71208 29.12078 0 0 0
182 -16.79317 -22.18277 23.38824 0 0 0
183 -16.93636 -23.12670 23.48565 0 0 0
184 -16.69116 -23.79539 24.30094 0 0 0
185 -16.38481 -24.40405 24.90189 0 0 0
186 -16.49703 -25.37341 24.65694 0 0 0
187 -15.99517 -26.16213 25.08388 0 0 0
188 -15.24510 -26.59083 25.56497 0 0 0
189 -14.42219 -27.07314 25.58019 0 0 0
190 -14.36722 -28.02610 25.91751 0 0 0
191 -13.68780 -28.67872 26.38542 0 0 0
192 -13.14270 -29.35784 26.84700 0 0 0
193 -12.96188 -30.20337 27.40162 0 0 0
194 -12.87221 -30.99487 28.00049 0 0 0
195 -12.68607 -31.93953 27.83430 0 0 0
196 -12.60856 -32.83845 28.16333 0 0 0
197 -12.47799 -33.83840 28.29127 0 0 0
198 -11.84620 -34.52841 28.68889 0 0 0
199 -11.90763 -35.57637 28.81017 0 0 0
200 -12.63038 -36.13225 29.00588 0 0 0
201 -13.05401 -36.89440 29.46788 0 0 0
202 -12.72765 -37.81406 29.53731 0 0 0
203 -12.21907 -38.62368 29.38195 0 0 0
204 -11.84641 -39.51879 29.42736 0 0 0
205 -11.24935 -40.21120 29.66192 0 0 0
206 -11.64605 -41.02549 30.24814 0 0 0
207 -11.60291 -42.02469 30.28409 0 0 0
208 -11.08122 -42.74637 30.56221 0 0 0
209 -11.31062 -43.68950 30.40565 0 0 0
210 -11.30150 -44.48066 30.95917 0 0 0
211 -10.58936 -45.22476 30.98683 0 0 0
212 -11.06413 -45.20309 30.14351 0 0 0
213 -11.55934 -45.28491 29.30774 0 0 0
214 -11.85800 -46.19064 29.27685 0 0 0
215 -12.64741 -46.42299 28.80288 0 0 0
216 -13.37386 -47.19377 28.85920 0 0 0
217 -13.94684 -47.96704 28.55031 0 0 0
218 -14.50805 -48.22561 27.73026 0 0 0
219 -14.97686 -48.88660 27.25659 0 0 0
220 -14.84806 -48.51243 26.31958 0 0 0
221 -15.51945 -48.23871 25.62510 0 0 0
222 -16.30296 -48.36698 25.04761 0 0 0
223 -17.22278 -48.37006 24.89556 0 0 0
224 -18.06400 -48.75023 24.56313 0 0 0
225 -18.62010 -48.60625 23.77362 0 0 0
226 -18.76362 -49.54895 23.43546 0 0 0
227 -19.53227 -49.10794 23.76967 0 0 0
228 -20.48145 -49.28362 23.65559 0 0 0
229 -20.83748 -50.03164 23.18484 0 0 0
230 -21.09354 -50.30678 22.24916 0 0 0
231 -21.25703 -50.62780 21.29546 0 0 0
232 -22.19622 -50.43947 21.01176 0 0 0
233 -22.83901 -50.95851 20.34593 0 0 0
234 -23.51468 -51.52942 19.91409 0 0 0
235 -24.48459 -51.76840 19.81683 0 0 0
236 -25.17495 -52.48009 19.68312 0 0 0
237 -26.08493 -52.99911 19.51488 0 0 0
238 -26.43332 -52.22164 19.07094 0 0 0
239 -26.01848 -51.37922 18.74846 0 0 0
240 -25.44084 -50.81877 18.13809 0 0 0
241 -24.76861 -50.96672 18.80796 0 0 0
242 -10.29845 -44.92748 31.94271 0 0 0
243 -9.62610 -45.33189 32.64222 0 0 0
244 -9.87712 -45.71134 33.49219 0 0 0
245 -10.20175 -46.59955 33.80917 0 0 0
246 -10.41427 -47.44001 34.23739 0 0 0
247 -9.85596 -47.71514 35.02516 0 0 0
248 -10.02141 -48.35298 35.76396 0 0 0
249 -10.00511 -48.59539 36.71701 0 0 0
250 -10.77416 -49.21556 37.13659 0 0 0
251 -11.11709 -49.69097 37.90068 0 0 0
252 -11.54455 -50.28923 38.54489 0 0 0
253 -11.35983 -50.64231 39.40948 0 0 0
254 -12.25487 -50.68274 39.66679 0 0 0
255 -12.29439 -51.64433 40.04292 0 0 0
256 -12.74954 -52.07954 40.93828 0 0 0
257 -12.22677 -52.74715 41.45465 0 0 0
258 -12.81291 -53.23980 42.02867 0 0 0
259 -12.11528 -53.12470 42.64695 0 0 0
260 -11.55194 -53.77869 43.16989 0 0 0
261 -11.18712 -54.25209 44.05542 0 0 0
262 -11.55072 -54.40516 45.03171 0 0 0
263 -11.66720 -55.25964 45.65347 0 0 0
264 -11.79979 -55.02337 46.60605 0 0 0
265 -11.92896 -54.79165 47.58754 0 0 0
266 -12.28026 -55.53832 48.09786 0 0 0
267 -12.44479 -56.37797 48.60844 0 0 0
268 -12.04424 -56.08081 49.50877 0 0 0
269 -12.66975 -56.04072 50.35770 0 0 0
270 -13.41931 -56.44668 50.72958 0 0 0
271 -14.39674 -56.55428 50.79550 0 0 0
272 -9.96896 -45.95910 31.11753 0 0 0
273 -9.12027 -46.44114 30.83819 0 0 0
274 -8.29179 -46.27509 30.50028 0 0 0
275 -7.99096 -47.18032 30.68076 0 0 0
276 -7.45150 -46.73660 29.95624 0 0 0
277 -6.53650 -46.96890 29.60684 0 0 0
278 -5.70825 -47.49811 29.50109 0 0 0
279 -4.98094 -48.13696 29.12550 0 0 0
280 -4.18860 -47.57826 29.14527 0 0 0
281 -3.27087 -47.38509 29.21232 0 0 0
282 -2.45791 -47.38115 28.63135 0 0 0
283 -1.60031 -47.84756 28.39292 0 0 0
284 -0.94684 -48.48147 28.67758 0 0 0
285 -0.25504 -49.09414 28.40482 0 0 0
286 0.71310 -49.11022 28.26408 0 0 0
287 1.36015 -49.80322 27.84518 0 0 0
288 2.01325 -49.67023 27.14095 0 0 0
289 3.02042 -49.70102 27.18685 0 0 0
290 3.35792 -48.81750 27.59579 0 0 0
291 4.28791 -48.44580 27.64910 0 0 0
292 5.14285 -48.58879 27.22312 0 0 0
293 5.80668 -49.06266 26.63068 0 0 0
294 6.36585 -48.76539 25.85021 0 0 0
295 7.31016 -49.08520 26.04967 0 0 0
296 8.25377 -49.04623 25.95284 0 0 0
297 7.77011 -49.25222 25.14266 0 0 0
298 8.31550 -49.84728 24.63506 0 0 0
299 9.06421 -50.28426 25.05068 0 0 0
300 9.84538 -49.71125 24.94679 0 0 0
301 10.31444 -50.32531 25.56915 0 0 0
ITEM: TIMESTEP
2000
ITEM: NUMBER OF ATOMS
301
ITEM: BOX BOUNDS pp pp pp
-1.0000000000000000e+03 1.0000000000000000e+03
-1.0000000000000000e+03 1.0000000000000000e+03
-1.0000000000000000e+03 1.0000000000000000e+03
ITEM: ATOMS id x y z ix iy iz
1 -0.30727 -0.49093 5.07352 0 0 0
2 -0.75556 -1.38710 5.11390 0 0 0
3 0.04833 -1.42262 5.61088 0 0 0
4 0.62625 -2.11616 6.09452 0 0 0
5 0.63308 -2.63006 6.94140 0 0 0
6 0.99324 -1.97701 7.50142 0 0 0
7 0.48739 -1.51506 8.28133 0 0 0
8 0.08384 -1.60059 9.18800 0 0 0
9 0.81969 -1.57507 9.79905 0 0 0
10 1.24168 -1.79832 10.59399 0 0 0
11 1.80966 -2.11286 11.29937 0 0 0
12 1.98753 -1.66883 12.22947 0 0 0
13 2.46865 -2.07630 12.92614 0 0 0
14 1.49604 -1.88589 13.30396 0 0 0
15 0.72067 -1.54294 13.72020 0 0 0
16 0.63102 -1.65708 14.67336 0 0 0
17 0.46208 -1.79520 15.60681 0 0 0
18 -0.14834 -2.58198 15.53042 0 0 0
19 -0.13681 -2.50112 16.47206 0 0 0
20 -0.44925 -2.11656 17.25609 0 0 0
21 -0.31502 -1.90987 18.16709 0 0 0
22 -0.19796 -1.70304 19.13586 0 0 0
23 -0.09894 -1.85538 20.08581 0 0 0
24 0.04543 -1.23791 20.84972 0 0 0
25 -0.49521 -1.00295 21.65870 0 0 0
26 -0.72307 -0.82261 22.56318 0 0 0
27 -1.15536 -1.11587 23.41809 0 0 0
28 -1.98944 -1.02083 23.94053 0 0 0
29 -1.40708 -1.09200 24.76459 0 0 0
30 -0.88924 -1.18269 25.57228 0 0 0
31 -0.24315 -1.84069 25.95795 0 0 0
32 0.04181 -1.06637 26.57842 0 0 0
33 -0.37113 -0.16238 26.86308 0 0 0
34 -0.51631 0.44488 27.65751 0 0 0
35 -0.21450 1.08693 28.32153 0 0 0
36 0.07690 0.90058 29.16609 0 0 0
37 -0.70691 1.36800 29.67175 0 0 0
38 -0.44568 2.26861 29.82165 0 0 0
39 -0.44609 2.38456 30.75617 0 0 0
40 -1.37743 2.08671 31.17610 0 0 0
41 -2.06573 2.63965 30.75268 0 0 0
42 -2.06341 3.00177 31.65788 0 0 0
43 -2.42585 3.16009 32.43912 0 0 0
44 -3.33050 3.10498 32.91096 0 0 0
45 -3.56704 3.71431 33.72092 0 0 0
46 -3.64376 4.03041 34.61014 0 0 0
47 -4.10872 4.73458 35.19426 0 0 0
48 -4.13872 5.72175 35.33494 0 0 0
49 -3.62718 5.74990 36.25880 0 0 0
50 -4.35293 5.42913 36.83020 0 0 0
51 -4.79048 6.03005 37.44377 0 0 0
52 -5.68456 6.06663 37.89266 0 0 0
53 -6.32807 5.70378 38.51166 0 0 0
54 -7.25828 5.52173 38.80052 0 0 0
55 -7.75836 5.78967 39.59169 0 0 0
56 -8.28833 6.58095 39.86509 0 0 0
57 -8.13888 6.62978 40.80179 0 0 0
58 -7.39019 7.34792 40.76310 0 0 0
59 -6.62540 7.57636 41.28050 0 0 0
60 -6.48075 6.66954 41.51771 0 0 0
61 -5.52764 6.63253 41.85476 0 0 0
62 0.54742 -1.78391 25.43260 0 0 0
63 1.37670 -1.23144 25.57840 0 0 0
64 2.11852 -1.55126 26.03854 0 0 0
65 2.30725 -2.41155 25.66017 0 0 0
66 3.27886 -2.10325 25.57019 0 0 0
67 4.23808 -2.07512 25.32488 0 0 0
68 5.02412 -2.15661 24.67099 0 0 0
69 5.89754 -2.34136 24.29172 0 0 0
70 6.79718 -2.44910 24.58599 0 0 0
71 7.55280 -3.06629 24.82830 0 0 0
72 8.21127 -3.14682 25.47723 0 0 0
73 8.24232 -3.42806 26.42174 0 0 0
74 8.90025 -2.72740 26.63871 0 0 0
75 9.33070 -1.90152 26.99585 0 0 0
76 10.36693 -2.17137 27.15659 0 0 0
77 11.14222 -1.99893 27.62993 0 0 0
78 11.75209 -1.91344 28.38283 0 0 0
79 12.11183 -2.80296 28.43694 0 0 0
80 13.08475 -3.24910 28.31129 0 0 0
81 13.99585 -2.83493 28.54407 0 0 0
82 14.66140 -2.98032 29.19356 0 0 0
83 15.39726 -2.46343 29.60874 0 0 0
84 16.29266 -2.81123 29.54779 0 0 0
85 17.08241 -3.35276 29.91025 0 0 0
86 17.99288 -3.73655 29.59710 0 0 0
87 18.81361 -3.20675 29.57778 0 0 0
88 19.63370 -3.68069 29.82980 0 0 0
89 20.36657 -3.78565 30.56167 0 0 0
90 21.14261 -4.21798 30.94811 0 0 0
91 22.10404 -4.16541 30.95032 0 0 0
92 -0.55330 -2.68833 26.31923 0 0 0
93 -1.06527 -3.42023 26.00563 0 0 0
94 -2.02829 -3.63964 25.78123 0 0 0
95 -2.33399 -4.55107 25.56018 0 0 0
96 -2.63669 -5.31784 25.92208 0 0 0
97 -3.01182 -6.13613 25.42909 0 0 0
98 -3.84230 -6.33494 24.91033 0 0 0
99 -4.49190 -6.88381 24.53057 0 0 0
100 -5.39671 -7.03298 24.86480 0 0 0
101 -5.83499 -7.53468 24.14471 0 0 0
102 -5.77721 -8.37242 23.42201 0 0 0
103 -6.59965 -8.91424 23.04988 0 0 0
104 -7.17290 -9.66750 23.43704 0 0 0
105 -7.54241 -10.52377 23.75951 0 0 0
106 -7.76606 -11.36758 23.41532 0 0 0
107 -8.31011 -12.08026 22.98469 0 0 0
108 -9.30538 -12.54554 22.75936 0 0 0
109 -9.92479 -12.86167 22.11682 0 0 0
110 -10.40052 -13.61217 22.04735 0 0 0
111 -10.72120 -14.48030 21.68678 0 0 0
112 -11.58853 -14.75636 21.92439 0 0 0
113 -12.25795 -15.55437 22.18386 0 0 0
114 -13.16314 -15.39301 22.47245 0 0 0
115 -13.52404 -16.36804 22.65175 0 0 0
116 -14.13094 -17.11820 22.57739 0 0 0
117 -14.36727 -17.90893 22.94450 0 0 0
118 -15.15390 -18.55883 22.81963 0 0 0
119 -15.64638 -19.22570 23.31500 0 0 0
120 -15.85320 -20.17604 23.55427 0 0 0
121 -16.41603 -20.94066 23.33517 0 0 0
122 -15.48495 -20.98953 22.89898 0 0 0
123 -15.34496 -21.75443 22.25704 0 0 0
124 -15.20441 -21.76520 21.32149 0 0 0
125 -15.03125 -21.36337 20.42137 0 0 0
126 -15.13654 -20.93979 19.56255 0 0 0
127 -14.84339 -20.81949 18.68031 0 0 0
128 -14.48840 -20.88469 17.62687 0 0 0
129 -14.25642 -21.28948 16.69549 0 0 0
130 -13.89631 -22.18343 16.39142 0 0 0
131 -14.11874 -22.22546 15.40959 0 0 0
132 -14.28028 -22.30674 14.44919 0 0 0
133 -14.66091 -22.79421 13.71049 0 0 0
134 -14.34386 -21.89936 13.37603 0 0 0
135 -13.79347 -21.82449 12.57674 0 0 0
136 -13.49828 -20.81287 12.49850 0 0 0
137 -13.01458 -21.38065 11.91838 0 0 0
138 -12.25314 -21.51887 11.24959 0 0 0
139 -12.51808 -20.67141 11.05915 0 0 0
140 -12.39068 -20.87092 10.05486 0 0 0
141 -12.25758 -20.89534 9.09728 0 0 0
142 -11.93193 -20.90668 8.13847 0 0 0
143 -12.04571 -20.05024 7.86317 0 0 0
144 -12.13530 -20.56019 7.00260 0 0 0
145 -11.63935 -20.47562 6.14445 0 0 0
146 -11.50629 -20.81652 5.21828 0 0 0
147 -11.16329 -20.56117 4.27547 0 0 0
148 -10.87526 -20.59927 3.39328 0 0 0
149 -11.57481 -20.18350 2.93849 0 0 0
150 -12.41242 -20.44464 2.42592 0 0 0
151 -11.82125 -19.83886 1.86111 0 0 0
152 -17.33718 -21.11598 23.34438 0 0 0
153 -18.27237 -21.19517 23.58532 0 0 0
154 -19.02838 -21.28657 24.21792 0 0 0
155 -19.72626 -21.69113 24.86321 0 0 0
156 -20.58880 -21.31896 24.84016 0 0 0
157 -21.49678 -21.11165 24.75015 0 0 0
158 -22.29750 -21.13274 25.39662 0 0 0
159 -23.08234 -20.89390 25.94181 0 0 0
160 -24.09537 -20.77811 25.91910 0 0 0
161 -25.10356 -20.88406 26.20561 0 0 0
162 -25.79174 -20.18629 26.56849 0 0 0
163 -26.48726 -19.45337 26.65794 0 0 0
164 -27.27125 -18.84165 26.42932 0 0 0
165 -27.73447 -17.99750 26.18440 0 0 0
166 -28.59190 -17.67313 26.57024 0 0 0
167 -29.54708 -17.44499 26.47257 0 0 0
168 -30.49862 -17.42883 26.24267 0 0 0
169 -31.26996 -17.51243 25.67864 0 0 0
170 -32.06275 -16.94634 25.76328 0 0 0
171 -32.80627 -17.67563 25.86208 0 0 0
172 -33.55242 -17.94124 26.40515 0 0 0
173 -33.83615 -18.13733 27.36469 0 0 0
174 -33.78156 -18.98105 27.96267 0 0 0
175 -34.51773 -19.43419 28.38097 0 0 0
176 -35.08708 -18.89262 28.91879 0 0 0
177 -35.95048 -18.85993 29.38222 0 0 0
178 -36.91341 -18.91319 29.65173 0 0 0
179 -36.87576 -19.72035 29.10195 0 0 0
180 -37.44422 -19.72015 28.36263 0 0 0
181 -36.50453 -19.93541 28.01817 0 0 0