ITEM: TIMESTEP
0
ITEM: NUMBER OF ATOMS
101
ITEM: BOX BOUNDS pp pp pp
-1.0000000000000000e+03 1.0000000000000000e+03
-1.0000000000000000e+03 1.0000000000000000e+03
-1.0000000000000000e+03 1.0000000000000000e+03
ITEM: ATOMS id x y z ix iy iz
1 0.00000 0.00000 0.00000 0 0 0
2 0.00000 0.00000 1.00000 0 0 0
3 0.00000 -0.50000 1.86603 0 0 0
4 0.00000 0.00000 2.73205 0 0 0
5 0.00000 -0.50000 3.59808 0 0 0
6 0.00000 0.00000 4.46410 0 0 0
7 0.00000 -0.50000 5.33013 0 0 0
8 0.00000 0.00000 6.19615 0 0 0
9 0.00000 -0.50000 7.06218 0 0 0
10 0.00000 0.00000 7.92820 0 0 0
11 0.00000 -0.50000 8.79423 0 0 0
12 0.93651 -0.75988 9.02963 0 0 0
13 1.87302 -1.10265 9.10356 0 0 0
14 2.80952 -1.21001 9.43736 0 0 0
15 3.74603 -1.55278 9.51129 0 0 0
16 4.68254 -1.66014 9.84510 0 0 0
17 5.61905 -2.00290 9.91902 0 0 0
18 6.55555 -2.11027 10.25283 0 0 0
19 7.49206 -2.45303 10.32675 0 0 0
20 8.42857 -2.56039 10.66056 0 0 0
21 9.36508 -2.90316 10.73449 0 0 0
22 -0.56123 -1.32280 8.70463 0 0 0
23 -1.12246 -1.99056 8.21565 0 0 0
24 -1.68370 -2.74792 8.54945 0 0 0
25 -2.24493 -3.41568 8.06047 0 0 0
26 -2.80616 -4.17304 8.39427 0 0 0
27 -3.36739 -4.84080 7.90528 0 0 0
28 -3.92862 -5.59816 8.23909 0 0 0
29 -4.48986 -6.26593 7.75010 0 0 0
30 -5.05109 -7.02329 8.08391 0 0 0
31 -5.61232 -7.69105 7.59492 0 0 0
32 -0.37528 0.08197 9.51567 0 0 0
33 -0.75055 0.22524 10.43145 0 0 0
34 -1.12583 1.08996 10.76525 0 0 0
35 -1.50110 1.23324 11.68103 0 0 0
36 -1.87638 2.09796 12.01483 0 0 0
37 -2.25165 2.24123 12.93061 0 0 0
38 -2.62693 3.10595 13.26441 0 0 0
39 -3.00220 3.24923 14.18019 0 0 0
40 -3.37748 4.11395 14.51399 0 0 0
41 -3.75276 4.25722 15.42977 0 0 0
42 -3.06875 4.00458 16.11410 0 0 0
43 -2.38475 3.44363 16.58043 0 0 0
44 -1.70074 3.56700 17.29940 0 0 0
45 -1.01674 3.00604 17.76573 0 0 0
46 -0.33273 3.12942 18.48470 0 0 0
47 0.35127 2.56846 18.95103 0 0 0
48 1.03527 2.69183 19.67000 0 0 0
49 1.71928 2.13088 20.13633 0 0 0
50 2.40328 2.25425 20.85530 0 0 0
51 3.08729 1.69329 21.32163 0 0 0
52 -4.56794 3.69040 15.54890 0 0 0
53 -5.38312 3.13995 15.36867 0 0 0
54 -6.19830 2.70864 15.75525 0 0 0
55 -7.01348 2.15819 15.57501 0 0 0
56 -7.82867 1.72688 15.96160 0 0 0
57 -8.64385 1.17643 15.78136 0 0 0
58 -9.45903 0.74512 16.16794 0 0 0
59 -10.27421 0.19467 15.98771 0 0 0
60 -11.08939 -0.23665 16.37429 0 0 0
61 -11.90457 -0.78709 16.19405 0 0 0
62 -3.99739 5.22016 15.54337 0 0 0
63 -4.24202 5.99729 16.12323 0 0 0
64 -4.48665 6.88802 15.74015 0 0 0
65 -4.73128 7.66514 16.32000 0 0 0
66 -4.97591 8.55587 15.93692 0 0 0
67 -5.22054 9.33300 16.51677 0 0 0
68 -5.46517 10.22373 16.13369 0 0 0
69 -5.70981 11.00086 16.71355 0 0 0
70 -5.95444 11.89159 16.33046 0 0 0
71 -6.19907 12.66871 16.91032 0 0 0
72 -5.92067 13.51907 16.46379 0 0 0
73 -5.64228 14.47877 16.50226 0 0 0
74 -5.36388 14.99193 15.69038 0 0 0
75 -5.08549 15.95163 15.72885 0 0 0
76 -4.80709 16.46479 14.91696 0 0 0
77 -4.52870 17.42449 14.95543 0 0 0
78 -4.25030 17.93765 14.14355 0 0 0
79 -3.97191 18.89735 14.18202 0 0 0
80 -3.69352 19.41052 13.37013 0 0 0
81 -3.41512 20.37021 13.40861 0 0 0
82 -5.73321 12.58745 17.79144 0 0 0
83 -5.26736 12.07651 18.51388 0 0 0
84 -4.80150 12.44669 19.31759 0 0 0
85 -4.33564 11.93576 20.04003 0 0 0
86 -3.86979 12.30594 20.84373 0 0 0
87 -3.40393 11.79500 21.56617 0 0 0
88 -2.93808 12.16519 22.36988 0 0 0
89 -2.47222 11.65425 23.09232 0 0 0
90 -2.00636 12.02443 23.89603 0 0 0
91 -1.54051 11.51349 24.61847 0 0 0
92 -7.18830 12.67785 17.05641 0 0 0
93 -8.17753 12.61272 17.18749 0 0 0
94 -9.16676 12.69368 17.30944 0 0 0
95 -10.15598 12.62854 17.44052 0 0 0
96 -11.14521 12.70950 17.56247 0 0 0
97 -12.13444 12.64437 17.69356 0 0 0
98 -13.12367 12.72533 17.81550 0 0 0
99 -14.11290 12.66020 17.94659 0 0 0
100 -15.10213 12.74115 18.06854 0 0 0
101 -16.09136 12.67602 18.19962 0 0 0
ITEM: TIMESTEP
1000
ITEM: NUMBER OF ATOMS
101
ITEM: BOX BOUNDS pp pp pp
-1.0000000000000000e+03 1.0000000000000000e+03
-1.0000000000000000e+03 1.0000000000000000e+03
-1.0000000000000000e+03 1.0000000000000000e+03
ITEM: ATOMS id x y z ix iy iz
1 0.86370 -1.01497 3.81997 0 0 0
2 0.53091 -0.24972 3.38850 0 0 0
3 0.35643 0.57085 3.84147 0 0 0
4 0.51613 0.05143 4.58684 0 0 0
5 0.53999 -0.75685 5.00869 0 0 0
6 1.15353 -0.96138 5.76130 0 0 0
7 1.47903 -0.28916 6.33489 0 0 0
8 1.39376 -0.76883 7.18670 0 0 0
9 1.00831 -0.24704 7.99900 0 0 0
10 0.68687 0.09383 8.86004 0 0 0
11 0.46086 -0.28412 9.79600 0 0 0
12 1.08518 -0.36162 10.60680 0 0 0
13 1.25202 -1.11604 11.16765 0 0 0
14 1.98739 -1.65027 10.60007 0 0 0
15 2.77862 -1.87012 10.12045 0 0 0
16 3.64222 -2.15583 9.80346 0 0 0
17 4.24376 -1.98595 8.93167 0 0 0
18 4.80720 -2.10881 8.19479 0 0 0
19 4.87253 -1.15234 7.95796 0 0 0
20 5.56541 -1.04623 8.67528 0 0 0
21 4.88626 -0.60608 9.17959 0 0 0
22 0.79701 -1.18731 9.79347 0 0 0
23 1.32905 -1.97439 9.78082 0 0 0
24 0.79670 -2.82708 9.84002 0 0 0
25 0.15104 -3.21746 10.41181 0 0 0
26 -0.55719 -3.83411 10.17977 0 0 0
27 -1.31071 -4.17498 10.73381 0 0 0
28 -2.06738 -4.78402 10.68266 0 0 0
29 -2.62938 -4.33150 10.02498 0 0 0
30 -2.42998 -4.41690 9.11131 0 0 0
31 -3.29865 -4.83031 8.87435 0 0 0
32 -0.25420 0.46952 9.72558 0 0 0
33 -0.94727 0.54680 10.41701 0 0 0
34 -1.13734 0.86397 11.31414 0 0 0
35 -1.55277 1.15193 12.20319 0 0 0
36 -1.29375 0.98015 13.06682 0 0 0
37 -1.63927 1.41182 13.92503 0 0 0
38 -1.71295 2.08383 14.60719 0 0 0
39 -2.21995 2.88856 14.69771 0 0 0
40 -2.50465 3.76912 15.03973 0 0 0
41 -2.95156 4.01541 15.83970 0 0 0
42 -3.05074 4.40255 16.75006 0 0 0
43 -2.60595 4.92000 17.63310 0 0 0
44 -2.27266 5.29297 18.49965 0 0 0
45 -2.02087 5.41331 19.42903 0 0 0
46 -1.50788 5.23273 20.15443 0 0 0
47 -0.99108 4.42142 20.39331 0 0 0
48 -0.45787 3.79268 20.82703 0 0 0
49 0.15048 3.67085 20.10819 0 0 0
50 0.56969 2.81620 20.01449 0 0 0
51 0.93861 2.35145 20.67965 0 0 0
52 -3.63713 3.37548 16.10792 0 0 0
53 -3.78823 2.48116 15.92182 0 0 0
54 -4.42930 2.06697 15.25309 0 0 0
55 -4.81474 1.24193 15.46356 0 0 0
56 -5.07633 0.30470 15.47648 0 0 0
57 -5.77989 -0.30503 15.59373 0 0 0
58 -6.68744 -0.12949 16.01618 0 0 0
59 -7.38495 -0.65562 15.64094 0 0 0
60 -7.97101 -0.14957 16.12989 0 0 0
61 -7.99630 0.46649 16.89629 0 0 0
62 -3.49846 4.74007 15.56760 0 0 0
63 -3.70366 5.61925 15.22915 0 0 0
64 -3.59193 6.60799 15.06361 0 0 0
65 -3.80925 7.38058 15.53124 0 0 0
66 -3.96506 8.27087 15.59027 0 0 0
67 -4.89812 8.26154 15.93104 0 0 0
68 -5.69358 8.54250 16.29634 0 0 0
69 -5.89159 9.43884 16.62047 0 0 0
70 -6.63066 9.97845 16.89154 0 0 0
71 -6.29814 10.92221 16.99857 0 0 0
72 -5.40372 11.35863 16.83367 0 0 0
73 -4.91525 12.16426 17.19709 0 0 0
74 -5.08076 13.05087 16.97433 0 0 0
75 -4.94687 13.98685 17.28402 0 0 0
76 -4.47632 14.84723 16.78419 0 0 0
77 -3.56330 14.83972 17.01900 0 0 0
78 -3.58469 15.63644 17.63077 0 0 0
79 -3.41460 16.54916 17.74954 0 0 0
80 -2.95471 17.42974 17.94310 0 0 0
81 -2.68907 18.30181 18.37111 0 0 0
82 -6.17381 11.88549 17.17574 0 0 0
83 -6.32710 12.26936 18.05267 0 0 0
84 -6.94992 12.60302 18.75868 0 0 0
85 -7.26557 13.55371 18.92035 0 0 0
86 -7.32628 14.52970 19.08271 0 0 0
87 -6.52793 14.48047 18.52786 0 0 0
88 -5.54109 14.35868 18.37479 0 0 0
89 -5.22546 14.53102 19.32087 0 0 0
90 -5.37780 15.03507 20.14298 0 0 0
91 -6.29879 15.19655 19.91873 0 0 0
92 -7.28470 11.02190 16.67154 0 0 0
93 -7.94453 11.04344 17.36474 0 0 0
94 -8.81619 10.91783 17.74329 0 0 0
95 -9.49968 11.57564 17.62982 0 0 0
96 -10.29595 12.14342 17.27167 0 0 0
97 -11.29700 12.36138 17.04436 0 0 0
98 -12.16977 12.00569 17.18747 0 0 0
99 -13.11469 12.27799 17.22945 0 0 0
100 -13.52797 12.72347 18.06348 0 0 0
101 -13.25605 12.38616 18.92213 0 0 0
ITEM: TIMESTEP
2000
ITEM: NUMBER OF ATOMS
101
ITEM: BOX BOUNDS pp pp pp
-1.0000000000000000e+03 1.0000000000000000e+03
-1.0000000000000000e+03 1.0000000000000000e+03
-1.0000000000000000e+03 1.0000000000000000e+03
ITEM: ATOMS id x y z ix iy iz
1 -0.78676 -1.80553 4.56663 0 0 0
2 -0.29428 -2.55061 4.87967 0 0 0
3 0.23277 -3.13476 5.53909 0 0 0
4 0.99685 -2.61618 5.90420 0 0 0
5 0.24114 -2.00375 6.12222 0 0 0
6 0.55607 -1.56026 6.91986 0 0 0
7 1.51064 -1.48532 7.03995 0 0 0
8 1.54934 -0.79420 7.71856 0 0 0
9 1.40606 0.02985 8.39221 0 0 0
10 1.25314 -0.14054 9.35494 0 0 0
11 1.05511 0.09664 10.28715 0 0 0
12 1.10632 -0.93643 10.49929 0 0 0
13 1.83478 -1.48510 10.19461 0 0 0
14 2.25279 -2.17246 9.67124 0 0 0
15 2.86056 -2.95477 9.67930 0 0 0
16 3.76083 -2.95351 9.93845 0 0 0
17 4.67458 -2.82151 9.54702 0 0 0
18 4.59230 -3.01003 8.63907 0 0 0
19 4.52141 -3.44543 7.84568 0 0 0
20 4.02036 -3.76763 7.02986 0 0 0
21 3.10894 -3.95014 6.83514 0 0 0
22 0.29651 -0.42500 9.96406 0 0 0
23 -0.26191 -0.47456 10.75923 0 0 0
24 -0.61050 -0.90972 11.53807 0 0 0
25 -1.53823 -1.10992 11.48684 0 0 0
26 -1.92291 -1.34543 10.57712 0 0 0
27 -2.33566 -1.53258 9.69830 0 0 0
28 -3.30103 -1.55207 9.40959 0 0 0
29 -3.70275 -2.16100 8.73608 0 0 0
30 -3.61680 -2.49805 7.82721 0 0 0
31 -3.11291 -3.05104 7.22765 0 0 0
32 0.61856 1.01740 10.65075 0 0 0
33 0.35889 1.50793 11.45993 0 0 0
34 -0.17532 1.93592 12.13456 0 0 0
35 -1.13034 2.10429 12.43668 0 0 0
36 -1.67024 2.16949 13.38404 0 0 0
37 -1.92800 2.48960 14.27830 0 0 0
38 -2.72464 2.89988 14.01283 0 0 0
39 -2.25863 3.74202 14.15660 0 0 0
40 -2.43664 4.24717 14.93430 0 0 0
41 -2.89244 4.97745 15.28231 0 0 0
42 -3.09784 4.16708 15.94848 0 0 0
43 -3.00453 3.34009 16.41436 0 0 0
44 -2.27366 2.81029 16.70943 0 0 0
45 -1.66580 3.32468 17.26636 0 0 0
46 -0.90483 3.96072 17.44678 0 0 0
47 -1.30438 4.64460 17.96769 0 0 0
48 -1.42204 4.78260 18.93593 0 0 0
49 -1.04038 4.23326 19.65650 0 0 0
50 -1.39890 3.97510 20.62832 0 0 0
51 -1.76847 4.61107 21.32613 0 0 0
52 -3.71358 4.30121 15.13457 0 0 0
53 -4.01373 3.36882 14.99994 0 0 0
54 -4.05724 2.45736 14.55267 0 0 0
55 -4.01671 1.89663 15.37560 0 0 0
56 -4.61955 1.26872 15.81711 0 0 0
57 -5.56983 1.27524 15.91901 0 0 0
58 -6.16621 1.20344 15.09829 0 0 0
59 -6.31013 1.29519 14.06899 0 0 0
60 -6.79747 0.88377 13.27610 0 0 0
61 -7.78767 1.02024 13.29578 0 0 0
62 -2.73879 5.95045 15.15458 0 0 0
63 -2.69967 6.93210 15.16214 0 0 0
64 -2.94918 7.60804 15.85221 0 0 0
65 -3.29934 8.11496 15.06032 0 0 0
66 -4.25207 8.33108 15.01261 0 0 0
67 -5.09217 8.99530 14.94777 0 0 0
68 -5.51825 9.37278 15.72323 0 0 0
69 -4.83959 9.85160 16.31708 0 0 0
70 -5.27452 10.60312 16.62406 0 0 0
71 -5.80483 11.40771 16.65195 0 0 0
72 -4.97934 11.98081 16.53661 0 0 0
73 -5.24642 12.97743 16.40931 0 0 0
74 -4.63753 13.29953 17.09517 0 0 0
75 -4.64623 14.16242 16.75474 0 0 0
76 -4.41124 14.50347 15.82862 0 0 0
77 -3.73679 14.43039 15.10825 0 0 0
78 -3.41112 15.12215 15.70072 0 0 0
79 -3.76133 16.08899 15.71937 0 0 0
80 -3.57354 16.13681 16.78466 0 0 0
81 -4.42675 16.62154 16.78114 0 0 0
82 -5.44529 11.60791 17.55824 0 0 0
83 -5.96891 12.32882 17.97949 0 0 0
84 -6.29019 12.80677 18.78106 0 0 0
85 -6.60529 13.64191 19.17171 0 0 0
86 -6.77573 14.60638 18.99412 0 0 0
87 -6.71261 15.33996 19.58501 0 0 0
88 -5.98954 15.94476 19.90459 0 0 0
89 -5.49911 15.25733 19.38571 0 0 0
90 -5.34863 14.93560 18.33796 0 0 0
91 -4.62071 14.77514 17.75883 0 0 0
92 -6.63186 11.59744 16.30369 0 0 0
93 -7.58173 11.59999 16.59509 0 0 0
94 -8.07162 10.96832 17.26443 0 0 0
95 -8.99430 10.66350 17.49179 0 0 0
96 -9.63906 10.93191 18.11417 0 0 0
97 -10.27294 11.26836 17.55654 0 0 0
98 -10.84324 11.95813 17.98305 0 0 0
99 -10.63559 12.45961 17.20941 0 0 0
100 -11.59640 12.77852 17.55901 0 0 0
101 -11.47229 13.73065 17.47128 0 0 0
ITEM: TIMESTEP
3000
ITEM: NUMBER OF ATOMS
101
ITEM: BOX BOUNDS pp pp pp
-1.0000000000000000e+03 1.0000000000000000e+03
-1.0000000000000000e+03 1.0000000000000000e+03
-1.0000000000000000e+03 1.0000000000000000e+03
ITEM: ATOMS id x y z ix iy iz
1 0.63932 -2.66280 8.93501 0 0 0
2 0.98957 -2.77285 8.00094 0 0 0
3 1.87584 -2.55320 8.36023 0 0 0
4 1.79595 -1.59341 8.52756 0 0 0
5 0.83411 -1.83011 8.34625 0 0 0
6 -0.06189 -1.73107 8.82984 0 0 0
7 0.53163 -1.51671 9.59670 0 0 0
8 0.95424 -0.67214 9.64695 0 0 0
9 0.96024 0.07055 10.19004 0 0 0
10 0.33974 0.57511 10.76599 0 0 0
11 0.04412 0.05394 11.54690 0 0 0
12 1.06741 0.06047 11.76643 0 0 0
13 1.99498 -0.19041 11.99484 0 0 0
14 1.63277 -1.01699 11.42248 0 0 0
15 1.67232 -1.15893 10.40302 0 0 0
16 2.55891 -1.66932 10.52661 0 0 0
17 2.56411 -2.32888 9.77697 0 0 0
18 3.03687 -2.80806 8.96554 0 0 0
19 3.52104 -2.86288 9.78527 0 0 0
20 4.09421 -2.86442 10.55558 0 0 0
21 3.43771 -3.48222 10.85541 0 0 0
22 -0.89705 0.25762 11.17267 0 0 0
23 -0.68865 -0.29652 10.40966 0 0 0
24 -1.63012 -0.37683 10.22678 0 0 0
25 -2.17617 0.31848 10.73393 0 0 0
26 -2.84059 0.06935 11.34622 0 0 0
27 -3.11195 -0.76812 11.54600 0 0 0
28 -3.08405 -1.70772 11.54953 0 0 0
29 -2.23830 -2.05617 11.87185 0 0 0
30 -2.40850 -2.77558 12.57837 0 0 0
31 -3.16077 -2.54039 13.08861 0 0 0
32 -0.15576 0.13814 12.53575 0 0 0
33 0.03832 0.77411 13.23284 0 0 0
34 -0.13919 0.66929 14.15685 0 0 0
35 -0.93717 1.28941 14.12205 0 0 0
36 -0.19023 1.81505 14.34576 0 0 0
37 -0.43438 2.28223 15.17593 0 0 0
38 -1.27239 2.85940 14.92887 0 0 0
39 -1.10243 3.75462 14.66784 0 0 0
40 -1.66068 4.40736 14.16288 0 0 0
41 -2.38741 4.52756 14.81830 0 0 0
42 -2.56470 3.95689 15.62437 0 0 0
43 -1.93316 3.36122 16.10408 0 0 0
44 -2.25840 2.59575 16.62048 0 0 0
45 -1.82225 3.22330 17.30393 0 0 0
46 -1.88969 4.06627 17.86317 0 0 0
47 -1.45172 4.54265 18.57123 0 0 0
48 -2.18017 5.13767 18.36647 0 0 0
49 -2.66526 4.62827 19.06651 0 0 0
50 -3.61234 4.49900 19.53779 0 0 0
51 -3.54630 5.36327 19.04969 0 0 0
52 -2.81972 4.86337 14.02102 0 0 0
53 -2.98902 3.86153 13.93692 0 0 0
54 -3.82977 3.34240 13.78535 0 0 0
55 -4.57841 2.68965 13.82259 0 0 0
56 -5.44587 2.44953 13.51556 0 0 0
57 -5.91880 1.98922 12.73274 0 0 0
58 -5.72793 2.00375 11.82005 0 0 0
59 -5.30476 1.56877 10.99555 0 0 0
60 -5.64035 0.76922 10.38453 0 0 0
61 -6.33934 0.31805 9.92169 0 0 0
62 -2.59138 5.04777 15.59834 0 0 0
63 -3.56951 4.75851 15.29174 0 0 0
64 -3.29962 4.40175 16.15750 0 0 0
65 -3.97248 4.82430 16.77250 0 0 0
66 -4.52068 5.69798 17.03367 0 0 0
67 -4.66177 6.65328 17.30710 0 0 0
68 -4.80036 7.52886 16.87856 0 0 0
69 -5.25112 8.34287 17.06449 0 0 0
70 -5.61874 9.06457 16.60335 0 0 0
71 -5.52657 10.01097 16.59847 0 0 0
72 -4.78680 10.54041 16.78037 0 0 0
73 -4.47440 10.90343 17.64038 0 0 0
74 -3.77966 11.55812 17.67187 0 0 0
75 -3.27455 12.40432 17.61257 0 0 0
76 -2.55191 13.05334 17.26711 0 0 0
77 -2.04578 13.90149 17.62719 0 0 0
78 -1.72453 14.51892 16.96758 0 0 0
79 -1.70063 15.04723 17.73575 0 0 0
80 -1.77965 15.53841 18.57028 0 0 0
81 -2.20480 15.16807 19.28123 0 0 0
82 -6.01193 10.85230 16.78763 0 0 0
83 -6.27167 11.74215 16.99448 0 0 0
84 -6.06224 12.68491 16.99713 0 0 0
85 -6.92109 13.17180 17.08073 0 0 0
86 -6.50322 12.91007 18.00661 0 0 0
87 -6.69450 12.19884 18.66593 0 0 0
88 -6.44086 12.73310 19.33264 0 0 0
89 -7.29843 12.90287 19.67298 0 0 0
90 -7.27283 13.66208 20.38676 0 0 0
91 -7.81175 14.43267 20.34836 0 0 0
92 -6.25799 9.71847 17.06227 0 0 0
93 -7.17263 9.47192 17.50162 0 0 0
94 -7.88550 10.17080 17.47876 0 0 0
95 -8.71418 9.64171 17.23262 0 0 0
96 -8.95849 10.60656 17.16201 0 0 0
97 -9.25479 11.50802 17.28859 0 0 0
98 -9.73550 12.20732 16.84828 0 0 0
99 -9.86917 11.80801 15.92580 0 0 0
100 -10.51975 11.66409 15.21134 0 0 0
101 -11.45723 11.90361 15.27883 0 0 0
ITEM: TIMESTEP
4000
ITEM: NUMBER OF ATOMS
101
ITEM: BOX BOUNDS pp pp pp
-1.0000000000000000e+03 1.0000000000000000e+03
-1.0000000000000000e+03 1.0000000000000000e+03
-1.0000000000000000e+03 1.0000000000000000e+03
ITEM: ATOMS id x y z ix iy iz
1 1.58017 -4.04671 8.26325 0 0 0
2 0.97012 -3.44529 7.85864 0 0 0
3 0.81324 -2.58524 7.54621 0 0 0
4 -0.07458 -2.28145 8.02170 0 0 0
5 -0.31943 -1.76488 8.86257 0 0 0
6 0.48526 -1.56646 9.28187 0 0 0
7 1.43313 -1.59677 9.42991 0 0 0
8 2.33779 -1.84248 9.16968 0 0 0
9 2.41673 -0.88588 8.80396 0 0 0
10 1.88328 -0.13367 9.04614 0 0 0
11 1.51372 0.58516 9.60024 0 0 0
12 1.25953 0.05443 10.43497 0 0 0
13 1.62175 -0.68069 10.93903 0 0 0
14 0.80579 -0.94095 11.31575 0 0 0
15 0.21538 -1.69409 11.35146 0 0 0
16 -0.47849 -2.30201 10.94642 0 0 0
17 0.06474 -2.99868 11.36400 0 0 0
18 0.59370 -3.70561 11.76984 0 0 0
19 1.23533 -3.90792 11.05892 0 0 0
20 2.17901 -3.83374 10.63152 0 0 0
21 2.25805 -3.55443 9.65865 0 0 0
22 0.65011 0.92338 9.07663 0 0 0
23 -0.26855 1.18794 9.35569 0 0 0
24 0.03146 0.38727 9.87898 0 0 0
25 -0.39877 -0.46598 9.74777 0 0 0
26 -1.40924 -0.57403 10.02467 0 0 0
27 -1.82491 -1.33924 10.45790 0 0 0
28 -2.45979 -2.06286 10.42797 0 0 0
29 -2.30851 -2.65898 9.70387 0 0 0
30 -2.73235 -2.80604 8.84510 0 0 0
31 -3.13821 -3.40262 8.18734 0 0 0
32 1.27253 1.28924 10.27667 0 0 0
33 0.65869 2.00439 10.55087 0 0 0
34 0.54923 2.15101 11.55609 0 0 0
35 -0.42872 2.51381 11.64235 0 0 0
36 -0.74648 3.40512 11.68702 0 0 0
37 -0.81894 3.85389 12.56546 0 0 0
38 -1.15658 3.91548 13.48449 0 0 0
39 -1.91894 3.44692 13.83524 0 0 0
40 -2.71259 3.67221 14.47005 0 0 0
41 -3.38157 4.09376 15.16225 0 0 0
42 -3.36157 4.19361 16.19377 0 0 0
43 -3.97368 4.94126 16.23055 0 0 0
44 -4.61946 4.11756 16.33160 0 0 0
45 -4.14075 3.82408 17.12295 0 0 0
46 -4.01231 4.17701 18.02747 0 0 0
47 -3.41144 4.91165 18.32537 0 0 0
48 -2.91071 4.27572 18.83921 0 0 0
49 -3.52681 4.16652 19.68918 0 0 0
50 -4.45846 4.02440 19.57585 0 0 0
51 -4.02387 3.15439 19.20284 0 0 0
52 -3.67563 3.89853 14.26298 0 0 0
53 -3.93166 2.89100 14.30800 0 0 0
54 -3.94257 1.99064 14.04947 0 0 0
55 -3.89751 0.98072 13.87798 0 0 0
56 -3.61088 0.93907 12.95318 0 0 0
57 -4.23436 1.65195 12.53043 0 0 0
58 -4.80365 2.44292 12.67044 0 0 0
59 -5.71961 2.57410 12.86500 0 0 0
60 -6.52853 3.04706 12.36654 0 0 0
61 -5.93703 3.28719 11.66885 0 0 0
62 -2.98916 4.95589 15.07188 0 0 0
63 -3.32761 5.82956 15.54096 0 0 0
64 -3.79189 6.35009 16.27832 0 0 0
65 -4.20148 6.87100 16.96461 0 0 0
66 -4.86559 7.71584 17.02421 0 0 0
67 -5.31277 7.87858 16.20362 0 0 0
68 -5.83700 8.36002 16.93030 0 0 0
69 -6.40373 9.24044 16.96294 0 0 0
70 -6.06143 10.14588 16.80894 0 0 0
71 -5.74132 11.11109 16.73816 0 0 0
72 -5.00851 10.58140 17.23702 0 0 0
73 -4.12506 10.55778 16.81870 0 0 0
74 -3.49568 10.03711 16.27066 0 0 0
75 -2.69371 10.57074 16.76886 0 0 0
76 -3.14906 11.35105 16.45883 0 0 0
77 -3.61731 11.94753 17.17691 0 0 0
78 -3.02701 12.69528 16.88840 0 0 0
79 -2.18185 13.13188 17.12563 0 0 0
80 -1.85360 13.10141 16.22557 0 0 0
81 -1.37272 13.54251 15.49575 0 0 0
82 -6.00102 12.07787 17.04055 0 0 0
83 -6.08804 13.02862 16.76074 0 0 0
84 -5.31398 13.36533 17.16103 0 0 0
85 -4.99576 13.38812 18.04715 0 0 0
86 -4.32379 12.61079 18.05172 0 0 0
87 -4.01106 12.67239 19.05723 0 0 0
88 -3.32389 12.02782 19.03023 0 0 0
89 -3.94833 11.25788 19.13862 0 0 0
90 -4.78858 11.85655 19.24626 0 0 0
91 -5.46090 11.91777 18.56846 0 0 0
92 -5.39442 10.73160 15.92352 0 0 0
93 -4.77857 11.49095 15.61854 0 0 0
94 -4.98360 12.19701 16.32335 0 0 0
95 -5.83237 11.96795 15.93985 0 0 0
96 -6.69931 11.52944 15.80192 0 0 0
97 -7.60125 11.76166 16.19460 0 0 0
98 -7.97063 10.86725 16.42955 0 0 0
99 -8.32601 9.99269 16.90777 0 0 0
100 -8.90573 10.72684 16.78322 0 0 0
101 -9.29494 11.62012 17.10924 0 0 0
ITEM: TIMESTEP
5000
ITEM: NUMBER OF ATOMS
101
ITEM: BOX BOUNDS pp pp pp
-1.0000000000000000e+03 1.0000000000000000e+03
-1.0000000000000000e+03 1.0000000000000000e+03
-1.0000000000000000e+03 1.0000000000000000e+03
ITEM: ATOMS id x y z ix iy iz
1 -0.53982 -3.43682 7.93192 0 0 0
2 -0.32122 -3.70122 7.00637 0 0 0
3 0.39293 -2.99680 7.16817 0 0 0
4 0.54826 -2.47785 7.91240 0 0 0
5 1.00742 -1.61462 7.91262 0 0 0
6 1.60085 -0.84276 8.19090 0 0 0
7 1.63795 0.16698 8.35286 0 0 0
8 1.95233 0.54519 9.21789 0 0 0
9 1.72991 1.20504 10.00386 0 0 0
10 0.89191 1.27007 10.42989 0 0 0
11 0.29602 2.08009 10.18851 0 0 0
12 -0.39870 1.40583 10.51451 0 0 0
13 -1.07300 1.40315 11.25214 0 0 0
14 -1.53256 0.69715 11.84417 0 0 0
15 -2.05960 -0.06134 11.41048 0 0 0
16 -1.29391 -0.59129 11.54128 0 0 0
17 -0.67647 -0.63974 12.26897 0 0 0
18 -0.96561 -1.61559 12.55657 0 0 0
19 -1.65967 -1.53294 13.28748 0 0 0
20 -2.41583 -0.97720 13.69219 0 0 0
21 -2.70151 -0.24361 14.24065 0 0 0
22 0.38432 1.65562 9.28633 0 0 0
23 0.03765 0.66836 9.05318 0 0 0
24 -0.73012 0.28279 8.59471 0 0 0
25 -0.71887 -0.42665 9.28569 0 0 0
26 -1.00549 -1.35040 9.41147 0 0 0
27 -0.92842 -1.77738 8.50806 0 0 0
28 -0.14983 -2.07669 9.02145 0 0 0
29 -0.71532 -2.73900 9.40968 0 0 0
30 -1.51386 -2.40167 9.83093 0 0 0
31 -1.90118 -1.57941 9.45916 0 0 0
32 0.63989 2.95541 10.57243 0 0 0
33 0.41204 3.62332 11.28449 0 0 0
34 -0.04032 4.22034 11.93089 0 0 0
35 0.09196 5.07506 11.54598 0 0 0
36 0.06179 6.06010 11.42202 0 0 0
37 -0.80682 5.66950 11.63445 0 0 0
38 -0.35804 6.13029 12.46785 0 0 0
39 -1.00380 6.57701 13.03302 0 0 0
40 -1.67588 6.37386 13.72752 0 0 0
41 -1.69981 5.97484 14.66364 0 0 0
42 -1.26518 5.38084 14.03854 0 0 0
43 -0.70774 4.57664 14.15873 0 0 0
44 -0.11067 4.78896 14.88613 0 0 0
45 0.15214 4.65176 15.77887 0 0 0
46 -0.63034 4.69944 16.44730 0 0 0
47 -1.53013 4.33978 16.31359 0 0 0
48 -1.35462 4.45518 17.36792 0 0 0
49 -2.26367 4.46441 17.72900 0 0 0
50 -3.08369 4.32151 18.14439 0 0 0
51 -2.86545 5.27926 18.38021 0 0 0
52 -2.46783 5.38665 14.40257 0 0 0
53 -3.32660 5.01566 14.07192 0 0 0
54 -3.95273 5.02608 14.86922 0 0 0
55 -4.89020 4.81163 14.63847 0 0 0
56 -5.65209 5.21673 15.05633 0 0 0
57 -6.35878 5.23459 14.44332 0 0 0
58 -5.79047 5.02374 13.75100 0 0 0
59 -5.75770 4.10620 13.57381 0 0 0
60 -6.44615 3.65362 14.03913 0 0 0
61 -6.97079 2.89183 14.24167 0 0 0
62 -1.13195 6.48941 15.30801 0 0 0
63 -1.34254 6.24316 16.25453 0 0 0
64 -1.86221 5.57928 16.88289 0 0 0
65 -2.43307 6.32874 16.72765 0 0 0
66 -3.09137 6.98709 16.40572 0 0 0
67 -4.11756 7.48381 16.26108 0 0 0
68 -4.32418 8.44570 15.96312 0 0 0
69 -5.01691 8.95342 16.43304 0 0 0
70 -4.77037 9.63427 15.65605 0 0 0
71 -4.80350 10.61807 15.74048 0 0 0
72 -4.14179 10.30090 15.06300 0 0 0
73 -3.16669 10.69836 14.77818 0 0 0
74 -2.66557 11.26870 14.20318 0 0 0
75 -1.71005 11.40152 14.38138 0 0 0
76 -1.67020 12.37656 14.36192 0 0 0
77 -1.79450 12.29675 15.29983 0 0 0
78 -1.20266 11.85460 15.98487 0 0 0
79 -1.22214 12.38348 16.75826 0 0 0
80 -0.72920 13.26498 17.09465 0 0 0
81 -1.23106 14.17151 16.85564 0 0 0
82 -4.84998 11.48927 16.15480 0 0 0
83 -4.47351 11.60468 17.06689 0 0 0
84 -4.86550 12.28254 17.69201 0 0 0
85 -4.71011 11.69911 18.44286 0 0 0
86 -4.79689 12.45148 18.97196 0 0 0
87 -4.20620 13.32024 19.01497 0 0 0
88 -3.99949 14.25045 18.59788 0 0 0
89 -3.58633 14.98002 18.97298 0 0 0
90 -3.01550 14.18264 19.48153 0 0 0
91 -2.06097 13.91324 19.46276 0 0 0
92 -5.66223 10.30561 16.10810 0 0 0
93 -6.38417 10.67252 15.59410 0 0 0
94 -6.92199 11.44003 15.90708 0 0 0
95 -7.42388 12.21298 15.83716 0 0 0
96 -7.45905 13.14043 15.46470 0 0 0
97 -8.34994 13.00245 14.95533 0 0 0
98 -8.40252 12.05640 14.70203 0 0 0
99 -8.93829 12.48741 14.06512 0 0 0
100 -9.29702 12.65376 13.02790 0 0 0
101 -9.46268 12.48508 12.04717 0 0 0
ITEM: TIMESTEP
6000
ITEM: NUMBER OF ATOMS
101
ITEM: BOX BOUNDS pp pp pp
-1.0000000000000000e+03 1.0000000000000000e+03
-1.0000000000000000e+03 1.0000000000000000e+03
-1.0000000000000000e+03 1.0000000000000000e+03
ITEM: ATOMS id x y z ix iy iz
1 2.31981 -4.73976 6.56853 0 0 0
2 3.03153 -4.00591 6.43533 0 0 0
3 2.82790 -3.03061 5.95037 0 0 0
4 2.65395 -2.55654 6.73532 0 0 0
5 2.31432 -2.40868 7.64063 0 0 0
6 2.38521 -2.34591 8.60757 0 0 0
7 2.00514 -2.55952 9.45452 0 0 0
8 1.56524 -2.27631 10.28131 0 0 0
9 1.20197 -1.40926 10.65718 0 0 0
10 0.30496 -1.28190 10.35305 0 0 0
11 0.11909 -0.44604 10.83716 0 0 0
12 -0.72469 -0.81995 10.45443 0 0 0
13 -1.15283 -0.82059 9.60451 0 0 0
14 -0.73253 -1.67024 9.74085 0 0 0
15 -1.21144 -2.30076 10.30484 0 0 0
16 -1.50281 -1.65897 11.05241 0 0 0
17 -1.83024 -1.59888 11.96812 0 0 0
18 -1.86110 -0.83373 12.57449 0 0 0
19 -2.63454 -0.66104 13.14310 0 0 0
20 -2.62368 -1.67494 13.08293 0 0 0
21 -3.55682 -2.08859 13.41611 0 0 0
22 -0.01282 -0.12145 9.89766 0 0 0
23 -0.80649 0.35928 9.62211 0 0 0
24 -1.70424 0.20087 9.58501 0 0 0
25 -1.80161 -0.07916 8.68013 0 0 0
26 -1.36103 -0.93888 8.36415 0 0 0
27 -1.73756 -1.71934 8.81430 0 0 0
28 -2.18157 -2.30003 8.17340 0 0 0
29 -1.63806 -3.08880 7.97059 0 0 0
30 -1.52421 -2.76121 8.89258 0 0 0
31 -1.59140 -3.49409 9.54976 0 0 0
32 0.10428 0.20907 11.50330 0 0 0
33 0.63543 1.05768 11.11949 0 0 0
34 1.13188 1.81347 11.20193 0 0 0
35 0.79785 2.17993 12.01502 0 0 0
36 0.25551 2.97195 11.91670 0 0 0
37 -0.55866 3.49426 11.56916 0 0 0
38 -1.27635 4.25224 11.51900 0 0 0
39 -2.15818 4.67115 11.92997 0 0 0
40 -3.18202 4.57790 12.13607 0 0 0
41 -3.72264 5.23140 12.79490 0 0 0
42 -3.27101 5.46687 13.64335 0 0 0
43 -3.31793 4.53956 13.76805 0 0 0
44 -2.86070 3.84209 14.24599 0 0 0
45 -2.10132 3.25508 14.27005 0 0 0
46 -1.09186 3.37205 14.22530 0 0 0
47 -0.32245 2.82759 14.56165 0 0 0
48 -0.26033 3.57173 15.21392 0 0 0
49 -0.74845 3.47696 16.06597 0 0 0
50 -1.45785 3.68463 16.68184 0 0 0
51 -2.28029 4.26256 16.84286 0 0 0
52 -4.40607 4.62475 13.15417 0 0 0
53 -4.32180 3.66445 13.02973 0 0 0
54 -4.77325 3.48025 13.92291 0 0 0
55 -5.08365 4.40758 13.80764 0 0 0
56 -5.85660 4.47024 13.19917 0 0 0
57 -5.86588 5.03069 12.41504 0 0 0
58 -6.64138 5.31772 11.90298 0 0 0
59 -7.44784 5.21511 11.35092 0 0 0
60 -7.81855 4.40142 11.75231 0 0 0
61 -7.71493 3.63584 11.22920 0 0 0
62 -4.39620 5.95969 12.73116 0 0 0
63 -4.40196 6.25582 13.58250 0 0 0
64 -5.35622 6.49192 13.61748 0 0 0
65 -4.90821 7.41207 13.77468 0 0 0
66 -4.44054 8.17535 13.44164 0 0 0
67 -3.72070 8.74005 13.79537 0 0 0
68 -3.30651 9.39122 14.38073 0 0 0
69 -4.13871 9.61079 14.86532 0 0 0
70 -4.52601 9.86838 15.77660 0 0 0
71 -4.60797 10.94419 15.59573 0 0 0
72 -3.83110 11.04629 15.09143 0 0 0
73 -3.11531 11.64642 14.86027 0 0 0
74 -2.82718 12.08615 14.08501 0 0 0
75 -2.24160 12.01681 13.25002 0 0 0
76 -2.05744 12.14107 12.34082 0 0 0
77 -1.72799 11.34461 11.76148 0 0 0
78 -1.01313 12.00600 11.88903 0 0 0
79 -1.13213 12.14905 12.84948 0 0 0
80 -1.27677 12.13771 13.81311 0 0 0
81 -1.69856 12.87682 14.23613 0 0 0
82 -4.50824 11.90028 15.36997 0 0 0
83 -4.75401 12.77470 14.92459 0 0 0
84 -3.80522 13.14880 14.84066 0 0 0
85 -4.26441 13.96976 14.83355 0 0 0
86 -4.03850 14.56875 15.60138 0 0 0
87 -4.00237 15.50471 15.31349 0 0 0
88 -3.03878 15.90403 15.38668 0 0 0
89 -2.11678 15.69689 15.74381 0 0 0
90 -1.48601 15.10615 16.19518 0 0 0
91 -1.58627 14.41565 16.83547 0 0 0
92 -5.68477 11.08837 15.61276 0 0 0
93 -6.19625 10.75790 14.75113 0 0 0
94 -6.93679 10.53846 14.09291 0 0 0
95 -7.33889 11.19033 14.64697 0 0 0
96 -8.22312 11.55321 14.40316 0 0 0
97 -8.49013 12.36273 13.82936 0 0 0
98 -8.70160 13.35920 13.87912 0 0 0
99 -8.43246 14.08599 14.36487 0 0 0
100 -8.11154 13.74894 15.20895 0 0 0
101 -8.56143 13.20851 15.89896 0 0 0
ITEM: TIMESTEP
7000
ITEM: NUMBER OF ATOMS
101
ITEM: BOX BOUNDS pp pp pp
-1.0000000000000000e+03 1.0000000000000000e+03
-1.0000000000000000e+03 1.0000000000000000e+03
-1.0000000000000000e+03 1.0000000000000000e+03
ITEM: ATOMS id x y z ix iy iz
1 3.15894 -3.04560 6.13243 0 0 0
2 3.39620 -2.70591 6.98680 0 0 0
3 3.17169 -2.05618 7.64923 0 0 0
4 2.28270 -1.84566 8.00918 0 0 0
5 1.65221 -1.18405 8.19808 0 0 0
6 1.92656 -0.58230 7.49850 0 0 0
7 1.82550 0.37600 7.17316 0 0 0
8 1.02556 0.70087 7.65183 0 0 0
9 0.10807 0.43093 8.02613 0 0 0
10 -0.27513 1.40869 8.25425 0 0 0
11 -1.14847 1.09685 8.68863 0 0 0
12 -1.23250 0.75496 9.62038 0 0 0
13 -1.03202 -0.20605 9.80677 0 0 0
14 -1.52707 -1.02791 9.66607 0 0 0
15 -2.01712 -1.59197 10.31031 0 0 0
16 -2.64622 -2.11467 10.85165 0 0 0
17 -3.61129 -2.48563 10.65654 0 0 0
18 -2.95313 -2.97733 10.18270 0 0 0
19 -2.94556 -3.27952 9.22501 0 0 0
20 -3.77893 -3.58828 9.61792 0 0 0
21 -4.04117 -4.50503 9.47323 0 0 0
22 -1.06356 0.56042 7.83928 0 0 0
23 -0.66012 0.02931 8.63118 0 0 0
24 -0.23415 -0.82935 8.90619 0 0 0
25 -0.20314 -1.75734 8.65443 0 0 0
26 0.12519 -1.99115 7.74994 0 0 0
27 0.44267 -2.63960 8.32203 0 0 0
28 -0.07537 -3.15576 8.93625 0 0 0
29 -0.73161 -2.69118 9.47489 0 0 0
30 -1.12074 -2.37397 10.30671 0 0 0
31 -0.35439 -1.95623 10.69219 0 0 0
32 -2.03361 1.37840 9.06374 0 0 0
33 -2.86980 1.88967 9.01002 0 0 0
34 -2.30623 2.77026 9.03754 0 0 0
35 -2.90683 2.93542 9.78530 0 0 0
36 -3.85634 2.83569 9.59193 0 0 0
37 -4.18260 3.34963 10.30852 0 0 0
38 -3.60117 3.86070 10.92652 0 0 0
39 -2.83303 3.42686 11.36458 0 0 0
40 -2.90784 4.04090 12.20602 0 0 0
41 -2.73108 4.54393 13.01752 0 0 0
42 -2.22493 4.11179 13.78931 0 0 0
43 -1.57143 3.91784 14.45057 0 0 0
44 -1.19112 3.47076 15.13263 0 0 0
45 -0.65796 2.92769 14.51356 0 0 0
46 0.23243 2.84151 14.91249 0 0 0
47 0.23802 2.67099 15.90382 0 0 0
48 -0.19740 2.72748 16.78577 0 0 0
49 -0.13109 3.40392 17.51073 0 0 0
50 -0.53308 3.65015 18.34505 0 0 0
51 -1.32281 4.19772 18.37688 0 0 0
52 -3.59460 4.70932 12.67866 0 0 0
53 -4.38757 5.44781 12.65003 0 0 0
54 -4.82288 6.19192 13.09647 0 0 0
55 -5.66545 5.80535 13.20416 0 0 0
56 -5.70392 5.22759 12.44768 0 0 0
57 -5.52063 5.10596 11.52841 0 0 0
58 -5.16437 4.36809 10.92961 0 0 0
59 -6.14118 4.38678 10.80714 0 0 0
60 -6.96965 4.35058 11.24592 0 0 0
61 -7.59995 3.94766 10.63123 0 0 0
62 -2.69228 5.35005 12.45343 0 0 0
63 -2.81041 6.19969 12.87383 0 0 0
64 -2.99728 7.13674 12.70650 0 0 0
65 -2.78043 7.86284 13.33133 0 0 0
66 -2.97314 8.05768 14.24076 0 0 0
67 -3.82709 8.41283 14.66626 0 0 0
68 -3.71911 9.07311 13.85167 0 0 0
69 -2.84448 9.63056 13.68129 0 0 0
70 -2.55637 10.60324 13.72368 0 0 0
71 -2.83104 11.50681 14.03995 0 0 0
72 -2.09952 11.71210 13.48687 0 0 0
73 -1.50990 11.92054 12.72438 0 0 0
74 -1.67808 12.80671 12.40962 0 0 0
75 -1.30609 13.24820 13.26991 0 0 0
76 -0.76674 13.75395 12.61404 0 0 0
77 0.06829 13.66002 13.16183 0 0 0
78 0.67358 14.07057 13.81116 0 0 0
79 1.54937 14.51385 14.10498 0 0 0
80 2.07845 14.64531 13.24692 0 0 0
81 3.04963 14.84860 13.17455 0 0 0
82 -3.16184 12.52994 14.17765 0 0 0
83 -3.15221 13.21211 13.49365 0 0 0
84 -2.55660 13.99065 13.71874 0 0 0
85 -2.16271 13.96547 14.62116 0 0 0
86 -2.13765 14.59745 15.41029 0 0 0
87 -2.26250 15.26552 14.66066 0 0 0
88 -2.66287 16.11865 14.48454 0 0 0
89 -3.17102 16.19383 15.38733 0 0 0
90 -3.85715 16.74874 14.83168 0 0 0
91 -3.71998 17.15317 13.96994 0 0 0
92 -3.76204 11.56317 13.88360 0 0 0