ITEM: TIMESTEP
0
ITEM: NUMBER OF ATOMS
401
ITEM: BOX BOUNDS pp pp pp
-1.0000000000000000e+03 1.0000000000000000e+03
-1.0000000000000000e+03 1.0000000000000000e+03
-1.0000000000000000e+03 1.0000000000000000e+03
ITEM: ATOMS id x y z ix iy iz
1 0.00000 0.00000 0.00000 0 0 0
2 0.00000 0.00000 1.00000 0 0 0
3 0.00000 -0.50000 1.86603 0 0 0
4 0.00000 0.00000 2.73205 0 0 0
5 0.00000 -0.50000 3.59808 0 0 0
6 0.00000 0.00000 4.46410 0 0 0
7 0.00000 -0.50000 5.33013 0 0 0
8 0.00000 0.00000 6.19615 0 0 0
9 0.00000 -0.50000 7.06218 0 0 0
10 0.00000 0.00000 7.92820 0 0 0
11 0.00000 -0.50000 8.79423 0 0 0
12 0.00000 0.00000 9.66025 0 0 0
13 0.00000 -0.50000 10.52628 0 0 0
14 0.00000 0.00000 11.39230 0 0 0
15 0.00000 -0.50000 12.25833 0 0 0
16 0.00000 0.00000 13.12436 0 0 0
17 0.00000 -0.50000 13.99038 0 0 0
18 0.00000 0.00000 14.85641 0 0 0
19 0.00000 -0.50000 15.72243 0 0 0
20 0.00000 0.00000 16.58846 0 0 0
21 0.00000 -0.50000 17.45448 0 0 0
22 0.00000 0.00000 18.32051 0 0 0
23 0.00000 -0.50000 19.18653 0 0 0
24 0.00000 0.00000 20.05256 0 0 0
25 0.00000 -0.50000 20.91858 0 0 0
26 0.00000 0.00000 21.78461 0 0 0
27 -0.33120 0.93121 21.63243 0 0 0
28 -0.66241 1.81374 21.96623 0 0 0
29 -0.99361 2.54410 21.36883 0 0 0
30 -1.32482 3.42664 21.70264 0 0 0
31 -1.65602 4.15699 21.10524 0 0 0
32 -1.98723 5.03953 21.43905 0 0 0
33 -2.31843 5.76989 20.84165 0 0 0
34 -2.64964 6.65243 21.17546 0 0 0
35 -2.98084 7.38278 20.57806 0 0 0
36 -3.31205 8.26532 20.91187 0 0 0
37 -3.64325 8.99568 20.31447 0 0 0
38 -3.97446 9.87822 20.64827 0 0 0
39 -4.30566 10.60857 20.05088 0 0 0
40 -4.63687 11.49111 20.38468 0 0 0
41 -4.96807 12.22147 19.78728 0 0 0
42 -5.29928 13.10401 20.12109 0 0 0
43 -5.63048 13.83436 19.52369 0 0 0
44 -5.96169 14.71690 19.85750 0 0 0
45 -6.29289 15.44726 19.26010 0 0 0
46 -6.62410 16.32980 19.59391 0 0 0
47 -6.95530 17.06015 18.99651 0 0 0
48 -7.28651 17.94269 19.33032 0 0 0
49 -7.61771 18.67305 18.73292 0 0 0
50 -7.94892 19.55559 19.06673 0 0 0
51 -8.28012 20.28594 18.46933 0 0 0
52 0.92990 0.03316 22.15091 0 0 0
53 1.85981 -0.12128 22.48472 0 0 0
54 2.78971 0.09058 22.78537 0 0 0
55 3.71962 -0.06385 23.11918 0 0 0
56 4.64952 0.14801 23.41983 0 0 0
57 5.57943 -0.00643 23.75364 0 0 0
58 6.50933 0.20544 24.05429 0 0 0
59 7.43923 0.05100 24.38809 0 0 0
60 8.36914 0.26287 24.68874 0 0 0
61 9.29904 0.10843 25.02255 0 0 0
62 10.22895 0.32030 25.32320 0 0 0
63 11.15885 0.16586 25.65701 0 0 0
64 12.08875 0.37773 25.95766 0 0 0
65 13.01866 0.22329 26.29147 0 0 0
66 13.94856 0.43515 26.59212 0 0 0
67 14.87847 0.28072 26.92592 0 0 0
68 15.80837 0.49258 27.22657 0 0 0
69 16.73828 0.33814 27.56038 0 0 0
70 17.66818 0.55001 27.86103 0 0 0
71 18.59808 0.39557 28.19484 0 0 0
72 19.52799 0.60744 28.49549 0 0 0
73 20.45789 0.45300 28.82930 0 0 0
74 21.38780 0.66487 29.12995 0 0 0
75 22.31770 0.51043 29.46375 0 0 0
76 23.24761 0.72229 29.76440 0 0 0
77 -0.59870 -0.46365 22.43775 0 0 0
78 -1.19740 -1.19175 22.77155 0 0 0
79 -1.79610 -1.26672 23.56901 0 0 0
80 -2.39480 -1.99482 23.90282 0 0 0
81 -2.99350 -2.06979 24.70028 0 0 0
82 -3.59220 -2.79789 25.03408 0 0 0
83 -4.19090 -2.87285 25.83154 0 0 0
84 -4.78959 -3.60095 26.16535 0 0 0
85 -5.38829 -3.67592 26.96281 0 0 0
86 -5.98699 -4.40402 27.29661 0 0 0
87 -6.58569 -4.47899 28.09407 0 0 0
88 -7.18439 -5.20709 28.42788 0 0 0
89 -7.78309 -5.28205 29.22533 0 0 0
90 -8.38179 -6.01016 29.55914 0 0 0
91 -8.98049 -6.08512 30.35660 0 0 0
92 -9.57919 -6.81322 30.69041 0 0 0
93 -10.17789 -6.88819 31.48786 0 0 0
94 -10.77659 -7.61629 31.82167 0 0 0
95 -11.37529 -7.69126 32.61913 0 0 0
96 -11.97399 -8.41936 32.95294 0 0 0
97 -12.57269 -8.49432 33.75039 0 0 0
98 -13.17139 -9.22243 34.08420 0 0 0
99 -13.77009 -9.29739 34.88166 0 0 0
100 -14.36878 -10.02549 35.21547 0 0 0
101 -14.96748 -10.10046 36.01292 0 0 0
102 -14.85451 -11.00153 36.43163 0 0 0
103 -14.74153 -11.99123 36.34370 0 0 0
104 -14.62855 -12.56222 37.15684 0 0 0
105 -14.51557 -13.55192 37.06892 0 0 0
106 -14.40259 -14.12292 37.88206 0 0 0
107 -14.28961 -15.11262 37.79413 0 0 0
108 -14.17663 -15.68361 38.60727 0 0 0
109 -14.06365 -16.67331 38.51935 0 0 0
110 -13.95067 -17.24431 39.33249 0 0 0
111 -13.83769 -18.23401 39.24456 0 0 0
112 -13.72471 -18.80500 40.05770 0 0 0
113 -13.61173 -19.79470 39.96978 0 0 0
114 -13.49875 -20.36570 40.78292 0 0 0
115 -13.38577 -21.35540 40.69499 0 0 0
116 -13.27280 -21.92639 41.50814 0 0 0
117 -13.15982 -22.91609 41.42021 0 0 0
118 -13.04684 -23.48709 42.23335 0 0 0
119 -12.93386 -24.47679 42.14543 0 0 0
120 -12.82088 -25.04778 42.95857 0 0 0
121 -12.70790 -26.03748 42.87064 0 0 0
122 -12.59492 -26.60848 43.68378 0 0 0
123 -12.48194 -27.59818 43.59586 0 0 0
124 -12.36896 -28.16917 44.40900 0 0 0
125 -12.25598 -29.15887 44.32107 0 0 0
126 -12.14300 -29.72987 45.13421 0 0 0
127 -15.91886 -9.98258 35.72834 0 0 0
128 -16.87024 -9.73820 35.54082 0 0 0
129 -17.82161 -9.77841 35.23542 0 0 0
130 -18.77299 -9.53403 35.04791 0 0 0
131 -19.72436 -9.57423 34.74251 0 0 0
132 -20.67574 -9.32986 34.55499 0 0 0
133 -21.62712 -9.37006 34.24959 0 0 0
134 -22.57849 -9.12568 34.06208 0 0 0
135 -23.52987 -9.16589 33.75668 0 0 0
136 -24.48124 -8.92151 33.56916 0 0 0
137 -25.43262 -8.96172 33.26376 0 0 0
138 -26.38399 -8.71734 33.07624 0 0 0
139 -27.33537 -8.75754 32.77085 0 0 0
140 -28.28675 -8.51316 32.58333 0 0 0
141 -29.23812 -8.55337 32.27793 0 0 0
142 -30.18950 -8.30899 32.09041 0 0 0
143 -31.14087 -8.34920 31.78502 0 0 0
144 -32.09225 -8.10482 31.59750 0 0 0
145 -33.04363 -8.14502 31.29210 0 0 0
146 -33.99500 -7.90065 31.10458 0 0 0
147 -34.94638 -7.94085 30.79919 0 0 0
148 -35.89775 -7.69647 30.61167 0 0 0
149 -36.84913 -7.73668 30.30627 0 0 0
150 -37.80050 -7.49230 30.11875 0 0 0
151 -38.75188 -7.53251 29.81336 0 0 0
152 -14.72864 -9.39234 36.67740 0 0 0
153 -14.48979 -9.11133 37.60690 0 0 0
154 -14.25094 -8.16585 37.82830 0 0 0
155 -14.01210 -7.88484 38.75780 0 0 0
156 -13.77325 -6.93935 38.97920 0 0 0
157 -13.53440 -6.65834 39.90870 0 0 0
158 -13.29556 -5.71286 40.13009 0 0 0
159 -13.05671 -5.43185 41.05960 0 0 0
160 -12.81786 -4.48637 41.28099 0 0 0
161 -12.57902 -4.20536 42.21050 0 0 0
162 -12.34017 -3.25987 42.43189 0 0 0
163 -12.10132 -2.97886 43.36140 0 0 0
164 -11.86248 -2.03338 43.58279 0 0 0
165 -11.62363 -1.75237 44.51230 0 0 0
166 -11.38478 -0.80689 44.73369 0 0 0
167 -11.14594 -0.52588 45.66320 0 0 0
168 -10.90709 0.41961 45.88459 0 0 0
169 -10.66824 0.70062 46.81410 0 0 0
170 -10.42940 1.64610 47.03549 0 0 0
171 -10.19055 1.92711 47.96500 0 0 0
172 -9.95170 2.87260 48.18639 0 0 0
173 -9.71286 3.15361 49.11590 0 0 0
174 -9.47401 4.09909 49.33729 0 0 0
175 -9.23516 4.38010 50.26680 0 0 0
176 -8.99632 5.32558 50.48819 0 0 0
177 -9.83169 5.85527 50.63510 0 0 0
178 -10.66706 6.24053 51.02718 0 0 0
179 -11.50244 6.77271 50.88957 0 0 0
180 -12.33781 7.15797 51.28164 0 0 0
181 -13.17319 7.69015 51.14403 0 0 0
182 -14.00856 8.07541 51.53610 0 0 0
183 -14.84394 8.60759 51.39849 0 0 0
184 -15.67931 8.99285 51.79056 0 0 0
185 -16.51469 9.52503 51.65295 0 0 0
186 -17.35006 9.91029 52.04503 0 0 0
187 -18.18543 10.44247 51.90742 0 0 0
188 -19.02081 10.82773 52.29949 0 0 0
189 -19.85618 11.35991 52.16188 0 0 0
190 -20.69156 11.74518 52.55395 0 0 0
191 -21.52693 12.27735 52.41634 0 0 0
192 -22.36231 12.66262 52.80841 0 0 0
193 -23.19768 13.19479 52.67080 0 0 0
194 -24.03306 13.58006 53.06288 0 0 0
195 -24.86843 14.11223 52.92526 0 0 0
196 -25.70380 14.49750 53.31734 0 0 0
197 -26.53918 15.02968 53.17973 0 0 0
198 -27.37455 15.41494 53.57180 0 0 0
199 -28.20993 15.94712 53.43419 0 0 0
200 -29.04530 16.33238 53.82626 0 0 0
201 -29.88068 16.86456 53.68865 0 0 0
202 -8.47777 5.72471 49.73201 0 0 0
203 -7.95923 6.44845 49.27670 0 0 0
204 -7.44069 6.41602 48.42226 0 0 0
205 -6.92215 7.13976 47.96695 0 0 0
206 -6.40360 7.10732 47.11251 0 0 0
207 -5.88506 7.83107 46.65720 0 0 0
208 -5.36652 7.79863 45.80277 0 0 0
209 -4.84798 8.52238 45.34746 0 0 0
210 -4.32944 8.48994 44.49302 0 0 0
211 -3.81089 9.21368 44.03771 0 0 0
212 -3.29235 9.18124 43.18327 0 0 0
213 -2.77381 9.90499 42.72796 0 0 0
214 -2.25527 9.87255 41.87353 0 0 0
215 -1.73673 10.59630 41.41822 0 0 0
216 -1.21818 10.56386 40.56378 0 0 0
217 -0.69964 11.28760 40.10847 0 0 0
218 -0.18110 11.25517 39.25403 0 0 0
219 0.33744 11.97891 38.79872 0 0 0
220 0.85599 11.94647 37.94429 0 0 0
221 1.37453 12.67022 37.48898 0 0 0
222 1.89307 12.63778 36.63454 0 0 0
223 2.41161 13.36153 36.17923 0 0 0
224 2.93015 13.32909 35.32479 0 0 0
225 3.44870 14.05283 34.86948 0 0 0
226 3.96724 14.02039 34.01505 0 0 0
227 -8.44030 5.34360 51.31917 0 0 0
228 -7.88428 4.94371 52.04782 0 0 0
229 -7.32826 5.37480 52.75846 0 0 0
230 -6.77224 4.97491 53.48711 0 0 0
231 -6.21622 5.40600 54.19775 0 0 0
232 -5.66021 5.00612 54.92640 0 0 0
233 -5.10419 5.43721 55.63704 0 0 0
234 -4.54817 5.03732 56.36569 0 0 0
235 -3.99215 5.46841 57.07633 0 0 0
236 -3.43613 5.06852 57.80498 0 0 0
237 -2.88011 5.49961 58.51562 0 0 0
238 -2.32410 5.09973 59.24427 0 0 0
239 -1.76808 5.53082 59.95491 0 0 0
240 -1.21206 5.13093 60.68356 0 0 0
241 -0.65604 5.56202 61.39420 0 0 0
242 -0.10002 5.16213 62.12285 0 0 0
243 0.45599 5.59322 62.83349 0 0 0
244 1.01201 5.19334 63.56214 0 0 0
245 1.56803 5.62442 64.27278 0 0 0
246 2.12405 5.22454 65.00143 0 0 0
247 2.68007 5.65563 65.71207 0 0 0
248 3.23609 5.25574 66.44072 0 0 0
249 3.79210 5.68683 67.15136 0 0 0
250 4.34812 5.28694 67.88001 0 0 0
251 4.90414 5.71803 68.59065 0 0 0
252 5.86053 5.73905 68.29933 0 0 0
253 6.81693 5.90291 68.05754 0 0 0
254 7.77332 5.77545 67.79474 0 0 0
255 8.72972 5.93931 67.55296 0 0 0
256 9.68611 5.81185 67.29015 0 0 0
257 10.64250 5.97572 67.04837 0 0 0
258 11.59890 5.84826 66.78557 0 0 0
259 12.55529 6.01212 66.54378 0 0 0
260 13.51168 5.88466 66.28098 0 0 0
261 14.46808 6.04852 66.03919 0 0 0
262 15.42447 5.92106 65.77639 0 0 0
263 16.38087 6.08492 65.53461 0 0 0
264 17.33726 5.95746 65.27181 0 0 0
265 18.29365 6.12132 65.03002 0 0 0
266 19.25005 5.99386 64.76722 0 0 0
267 20.20644 6.15773 64.52543 0 0 0
268 21.16283 6.03026 64.26263 0 0 0
269 22.11923 6.19413 64.02085 0 0 0
270 23.07562 6.06667 63.75804 0 0 0
271 24.03201 6.23053 63.51626 0 0 0
272 24.98841 6.10307 63.25346 0 0 0
273 25.94480 6.26693 63.01167 0 0 0
274 26.90120 6.13947 62.74887 0 0 0
275 27.85759 6.30333 62.50708 0 0 0
276 28.81398 6.17587 62.24428 0 0 0
277 4.82604 5.19450 69.43907 0 0 0
278 4.74795 4.31690 69.91206 0 0 0
279 4.66985 4.28772 70.90858 0 0 0
280 4.59175 3.41012 71.38157 0 0 0
281 4.51365 3.38094 72.37808 0 0 0
282 4.43556 2.50334 72.85107 0 0 0
283 4.35746 2.47415 73.84759 0 0 0
284 4.27936 1.59655 74.32058 0 0 0
285 4.20126 1.56737 75.31710 0 0 0
286 4.12317 0.68977 75.79008 0 0 0
287 4.04507 0.66059 76.78660 0 0 0
288 3.96697 -0.21701 77.25959 0 0 0
289 3.88887 -0.24619 78.25611 0 0 0
290 3.81078 -1.12380 78.72909 0 0 0
291 3.73268 -1.15298 79.72561 0 0 0
292 3.65458 -2.03058 80.19860 0 0 0
293 3.57648 -2.05976 81.19512 0 0 0
294 3.49839 -2.93736 81.66811 0 0 0
295 3.42029 -2.96654 82.66462 0 0 0
296 3.34219 -3.84414 83.13761 0 0 0
297 3.26409 -3.87333 84.13413 0 0 0
298 3.18600 -4.75093 84.60712 0 0 0
299 3.10790 -4.78011 85.60364 0 0 0
300 3.02980 -5.65771 86.07662 0 0 0
301 2.95170 -5.68689 87.07314 0 0 0
302 4.58265 6.65225 68.74520 0 0 0
303 4.26117 7.38403 69.34616 0 0 0
304 3.93968 8.27036 69.01289 0 0 0
305 3.61819 9.00214 69.61385 0 0 0
306 3.29670 9.88847 69.28059 0 0 0
307 2.97521 10.62025 69.88154 0 0 0
308 2.65373 11.50658 69.54828 0 0 0
309 2.33224 12.23836 70.14923 0 0 0
310 2.01075 13.12469 69.81597 0 0 0
311 1.68926 13.85647 70.41692 0 0 0
312 1.36777 14.74280 70.08366 0 0 0
313 1.04629 15.47458 70.68461 0 0 0
314 0.72480 16.36091 70.35135 0 0 0
315 0.40331 17.09268 70.95230 0 0 0
316 0.08182 17.97902 70.61904 0 0 0
317 -0.23967 18.71079 71.21999 0 0 0
318 -0.56116 19.59712 70.88673 0 0 0
319 -0.88264 20.32890 71.48768 0 0 0
320 -1.20413 21.21523 71.15442 0 0 0
321 -1.52562 21.94701 71.75537 0 0 0
322 -1.84711 22.83334 71.42211 0 0 0
323 -2.16860 23.56512 72.02306 0 0 0
324 -2.49008 24.45145 71.68980 0 0 0
325 -2.81157 25.18323 72.29075 0 0 0
326 -3.13306 26.06956 71.95749 0 0 0
327 -3.04882 26.10227 70.96158 0 0 0
328 -2.96459 26.62855 70.11545 0 0 0
329 -2.88036 26.15892 69.23662 0 0 0
330 -2.79612 26.68519 68.39049 0 0 0
331 -2.71189 26.21556 67.51165 0 0 0
332 -2.62765 26.74184 66.66552 0 0 0
333 -2.54342 26.27221 65.78669 0 0 0
334 -2.45919 26.79849 64.94056 0 0 0
335 -2.37495 26.32886 64.06172 0 0 0
336 -2.29072 26.85514 63.21559 0 0 0
337 -2.20648 26.38551 62.33676 0 0 0
338 -2.12225 26.91178 61.49063 0 0 0
339 -2.03801 26.44215 60.61179 0 0 0
340 -1.95378 26.96843 59.76566 0 0 0
341 -1.86955 26.49880 58.88683 0 0 0
342 -1.78531 27.02508 58.04070 0 0 0
343 -1.70108 26.55545 57.16186 0 0 0
344 -1.61684 27.08173 56.31573 0 0 0
345 -1.53261 26.61210 55.43690 0 0 0
346 -1.44837 27.13837 54.59077 0 0 0
347 -1.36414 26.66874 53.71193 0 0 0
348 -1.27991 27.19502 52.86580 0 0 0
349 -1.19567 26.72539 51.98697 0 0 0
350 -1.11144 27.25167 51.14084 0 0 0
351 -1.02720 26.78204 50.26200 0 0 0
352 -2.58114 26.79859 72.36234 0 0 0
353 -2.02923 27.22753 73.07747 0 0 0
354 -1.47731 28.06131 73.06356 0 0 0
355 -0.92540 28.49025 73.77869 0 0 0
356 -0.37348 29.32403 73.76478 0 0 0
357 0.17844 29.75297 74.47991 0 0 0
358 0.73035 30.58675 74.46600 0 0 0
359 1.28227 31.01568 75.18112 0 0 0
360 1.83418 31.84947 75.16722 0 0 0
361 2.38610 32.27840 75.88234 0 0 0
362 2.93801 33.11219 75.86844 0 0 0
363 3.48993 33.54112 76.58356 0 0 0
364 4.04185 34.37491 76.56966 0 0 0
365 4.59376 34.80384 77.28478 0 0 0
366 5.14568 35.63762 77.27088 0 0 0
367 5.69759 36.06656 77.98600 0 0 0
368 6.24951 36.90034 77.97210 0 0 0
369 6.80142 37.32928 78.68722 0 0 0
370 7.35334 38.16306 78.67332 0 0 0
371 7.90526 38.59200 79.38844 0 0 0
372 8.45717 39.42578 79.37453 0 0 0
373 9.00909 39.85471 80.08966 0 0 0
374 9.56100 40.68850 80.07575 0 0 0
375 10.11292 41.11743 80.79088 0 0 0
376 10.66483 41.95122 80.77697 0 0 0
377 -4.09115 26.19542 72.21482 0 0 0
378 -5.04925 26.17575 72.50059 0 0 0
379 -6.00734 26.41340 72.66051 0 0 0
380 -6.96544 26.39373 72.94629 0 0 0
381 -7.92353 26.63138 73.10621 0 0 0
382 -8.88163 26.61171 73.39199 0 0 0
383 -9.83972 26.84937 73.55191 0 0 0
384 -10.79782 26.82970 73.83769 0 0 0
385 -11.75591 27.06735 73.99761 0 0 0
386 -12.71401 27.04768 74.28338 0 0 0
387 -13.67210 27.28533 74.44331 0 0 0
388 -14.63020 27.26566 74.72908 0 0 0
389 -15.58829 27.50332 74.88900 0 0 0
390 -16.54638 27.48365 75.17478 0 0 0
391 -17.50448 27.72130 75.33470 0 0 0
392 -18.46257 27.70163 75.62048 0 0 0
393 -19.42067 27.93929 75.78040 0 0 0
394 -20.37876 27.91962 76.06618 0 0 0
395 -21.33686 28.15727 76.22610 0 0 0
396 -22.29495 28.13760 76.51187 0 0 0
397 -23.25305 28.37525 76.67180 0 0 0
398 -24.21114 28.35558 76.95757 0 0 0
399 -25.16924 28.59324 77.11749 0 0 0
400 -26.12733 28.57357 77.40327 0 0 0
401 -27.08543 28.81122 77.56319 0 0 0
ITEM: TIMESTEP
1000
ITEM: NUMBER OF ATOMS
401
ITEM: BOX BOUNDS pp pp pp
-1.0000000000000000e+03 1.0000000000000000e+03
-1.0000000000000000e+03 1.0000000000000000e+03
-1.0000000000000000e+03 1.0000000000000000e+03
ITEM: ATOMS id x y z ix iy iz
1 1.97703 1.12929 5.71678 0 0 0
2 1.72364 2.05550 5.63730 0 0 0
3 1.02969 2.74922 5.62294 0 0 0
4 0.42980 2.51017 6.30304 0 0 0
5 -0.08737 2.38042 7.11699 0 0 0
6 0.04555 2.66910 8.01127 0 0 0
7 0.89417 2.04416 8.04550 0 0 0
8 1.60400 2.48925 8.49337 0 0 0
9 1.71775 1.71377 9.16787 0 0 0
10 2.61716 1.48176 9.53715 0 0 0
11 3.26408 1.64349 10.28509 0 0 0
12 3.02725 1.85057 11.26579 0 0 0
13 2.31821 1.92612 11.95718 0 0 0
14 1.92268 1.47678 12.68256 0 0 0
15 1.74883 1.20666 13.58837 0 0 0
16 1.60077 0.98334 14.67013 0 0 0
17 2.09580 0.46741 15.39059 0 0 0
18 2.21413 0.42955 16.43740 0 0 0
19 2.43194 0.57453 17.37994 0 0 0
20 1.72259 1.00675 17.92712 0 0 0
21 1.17106 0.92889 18.68913 0 0 0
22 1.57216 0.65880 19.59522 0 0 0
23 1.56386 -0.04767 20.26596 0 0 0
24 0.79868 0.23691 20.83302 0 0 0
25 0.87179 0.67926 21.77549 0 0 0
26 0.41300 1.25976 22.45839 0 0 0
27 0.25205 2.18772 22.27351 0 0 0
28 0.52702 3.06284 22.70683 0 0 0
29 1.44332 3.48417 22.32905 0 0 0
30 1.27151 4.35429 21.81668 0 0 0
31 1.70458 5.24745 21.74023 0 0 0
32 1.33709 5.95086 21.16175 0 0 0
33 0.50546 6.45078 21.09804 0 0 0
34 -0.48098 6.73785 20.78758 0 0 0
35 -1.20739 7.48720 21.00058 0 0 0
36 -1.96337 8.09418 21.10411 0 0 0
37 -2.56458 8.87650 21.36109 0 0 0
38 -3.44760 9.12747 20.91777 0 0 0
39 -3.42828 9.52602 21.76523 0 0 0
40 -3.67172 10.37112 22.17252 0 0 0
41 -4.22345 11.13715 21.78205 0 0 0
42 -4.20741 11.97310 21.25753 0 0 0
43 -4.18885 12.92131 21.01733 0 0 0
44 -4.67915 13.63936 20.48284 0 0 0
45 -5.03635 14.50070 20.87374 0 0 0
46 -5.50827 15.24783 20.45097 0 0 0
47 -6.38598 15.64044 20.04488 0 0 0
48 -5.61669 15.88282 19.51564 0 0 0
49 -5.18926 16.05903 18.66306 0 0 0
50 -5.20292 16.27811 17.68977 0 0 0
51 -5.24464 15.62623 17.03145 0 0 0
52 1.23169 1.59009 22.79423 0 0 0
53 1.68633 0.79472 22.52348 0 0 0
54 2.52211 0.26664 22.74049 0 0 0
55 3.39476 0.59772 22.87132 0 0 0
56 4.16767 0.64149 23.53937 0 0 0
57 4.75195 -0.03051 23.87346 0 0 0
58 5.58016 -0.33716 23.56317 0 0 0
59 6.21750 -0.91887 24.02570 0 0 0
60 6.55166 -0.86698 24.95904 0 0 0
61 7.43029 -0.50903 25.17211 0 0 0
62 8.35950 -0.18454 25.32956 0 0 0
63 9.20545 -0.15820 24.94389 0 0 0
64 9.81270 -0.93610 25.13912 0 0 0
65 10.70897 -0.65443 24.96716 0 0 0
66 11.37537 -1.32410 25.18226 0 0 0
67 11.57621 -2.17695 25.59128 0 0 0
68 12.52679 -1.77292 25.81700 0 0 0
69 12.82080 -0.90273 25.69200 0 0 0
70 13.15341 -0.09734 26.19406 0 0 0
71 13.75882 0.39743 26.83343 0 0 0
72 14.03268 1.33131 26.84477 0 0 0
73 14.68236 0.84141 26.24306 0 0 0
74 15.70247 0.90806 26.11725 0 0 0
75 16.70580 0.89692 26.24618 0 0 0
76 17.42771 1.15386 26.87248 0 0 0
77 0.07564 0.52111 22.93733 0 0 0
78 -0.51009 -0.09640 23.52734 0 0 0
79 -1.19064 -0.82149 23.65759 0 0 0
80 -1.60602 -1.74657 23.75002 0 0 0
81 -2.06999 -2.59646 24.10938 0 0 0
82 -2.55817 -3.25810 24.55399 0 0 0
83 -3.23591 -3.36402 25.28906 0 0 0
84 -4.16209 -3.49896 25.51463 0 0 0
85 -4.91602 -3.99258 26.03237 0 0 0
86 -5.69106 -4.29199 26.58937 0 0 0
87 -6.51882 -4.36283 27.05980 0 0 0
88 -7.06722 -4.64248 27.90171 0 0 0
89 -7.55696 -5.03796 28.66899 0 0 0
90 -7.21482 -5.27129 29.56469 0 0 0
91 -7.69913 -5.39571 30.36257 0 0 0
92 -8.41294 -5.97463 30.88244 0 0 0
93 -9.16355 -6.52568 31.22888 0 0 0
94 -10.05150 -6.30115 31.56162 0 0 0
95 -10.10389 -7.22407 31.81275 0 0 0
96 -10.78831 -7.91300 31.98594 0 0 0
97 -11.77262 -8.06803 32.33018 0 0 0
98 -12.18779 -8.08143 33.25474 0 0 0
99 -12.97848 -8.35327 33.83451 0 0 0
100 -13.64816 -8.30898 34.61063 0 0 0
101 -14.57005 -8.57507 34.74973 0 0 0
102 -14.80483 -9.44093 34.39095 0 0 0
103 -15.21164 -10.29815 34.55609 0 0 0
104 -14.47655 -10.89312 34.83629 0 0 0
105 -14.58339 -11.72335 35.36030 0 0 0
106 -15.33810 -12.01817 35.95039 0 0 0
107 -15.66872 -12.65628 36.56129 0 0 0
108 -15.14067 -13.45127 36.28452 0 0 0
109 -14.50375 -14.23020 36.31732 0 0 0
110 -14.11669 -15.03266 36.84967 0 0 0
111 -14.76969 -15.86761 36.86816 0 0 0
112 -14.02219 -16.51814 37.03122 0 0 0
113 -13.20830 -16.83707 37.46655 0 0 0
114 -12.81453 -17.70865 37.92186 0 0 0
115 -13.08900 -18.52503 38.40186 0 0 0
116 -13.44034 -19.32483 38.83179 0 0 0
117 -13.49496 -20.31290 39.12029 0 0 0
118 -12.89347 -21.08452 39.07896 0 0 0
119 -12.33095 -21.92315 38.81142 0 0 0
120 -12.74413 -22.69299 39.28547 0 0 0
121 -12.32809 -23.55536 39.68238 0 0 0
122 -11.99395 -23.78924 40.55312 0 0 0
123 -11.11428 -24.29268 40.63750 0 0 0
124 -11.18402 -25.12619 40.19691 0 0 0
125 -10.77057 -25.82187 39.68223 0 0 0
126 -10.24473 -25.52577 38.92262 0 0 0
127 -15.34731 -8.06577 34.36234 0 0 0
128 -16.21286 -7.58756 34.62003 0 0 0
129 -17.20012 -7.73815 34.59771 0 0 0
130 -18.10161 -7.74182 34.94688 0 0 0
131 -18.86630 -8.37687 34.83766 0 0 0
132 -19.73270 -8.54033 34.44376 0 0 0
133 -20.48713 -8.85985 35.12026 0 0 0
134 -21.52567 -8.94794 35.22208 0 0 0
135 -22.35359 -9.52532 35.24258 0 0 0
136 -22.76522 -9.57839 34.33685 0 0 0
137 -23.20311 -8.98893 33.60942 0 0 0
138 -24.08675 -9.26151 33.59571 0 0 0
139 -24.80564 -8.72110 33.17730 0 0 0
140 -25.56872 -8.59735 33.81699 0 0 0
141 -26.61008 -8.52969 33.74603 0 0 0
142 -27.65113 -8.58355 33.65473 0 0 0
143 -28.32709 -8.19253 33.11564 0 0 0
144 -28.66514 -7.36901 32.56645 0 0 0
145 -29.27475 -6.57688 32.56703 0 0 0
146 -29.97301 -6.19711 33.28899 0 0 0
147 -30.82184 -6.63554 33.36286 0 0 0
148 -31.69196 -6.79363 32.74310 0 0 0
149 -32.39754 -7.41788 32.25350 0 0 0
150 -32.38231 -8.42433 32.25389 0 0 0
151 -33.10761 -8.44822 31.61047 0 0 0
152 -14.47828 -8.00558 35.63589 0 0 0
153 -14.32864 -7.31832 36.32746 0 0 0
154 -14.28758 -6.58031 36.95696 0 0 0
155 -14.10835 -6.10459 37.75201 0 0 0
156 -14.48000 -5.19411 38.13102 0 0 0
157 -13.96242 -4.80317 38.85325 0 0 0
158 -13.49063 -4.52250 39.66762 0 0 0
159 -13.01960 -3.89632 40.36838 0 0 0
160 -13.00626 -2.94725 40.40193 0 0 0
161 -12.33349 -2.25162 40.48021 0 0 0
162 -12.05391 -1.80527 41.24607 0 0 0
163 -11.73766 -1.64891 42.17400 0 0 0
164 -11.42177 -1.00325 42.88861 0 0 0
165 -11.72384 -0.47158 43.76065 0 0 0
166 -12.45841 -0.37180 44.39864 0 0 0
167 -12.75441 0.38037 44.99759 0 0 0
168 -11.97062 1.01668 45.14690 0 0 0
169 -11.79986 1.79577 45.73941 0 0 0
170 -11.34935 2.43919 46.27692 0 0 0
171 -10.67226 2.53869 46.95508 0 0 0
172 -10.28819 3.10506 47.70687 0 0 0
173 -10.51955 3.89033 48.29425 0 0 0
174 -10.66107 4.38226 49.09014 0 0 0
175 -10.49266 5.22168 49.56130 0 0 0
176 -9.87043 5.86907 50.09394 0 0 0
177 -10.50042 6.56832 50.24531 0 0 0
178 -11.43139 6.83133 50.27067 0 0 0
179 -12.16751 7.41570 50.52173 0 0 0
180 -13.10085 7.70856 50.30390 0 0 0
181 -14.03568 8.04556 50.02333 0 0 0
182 -14.77720 8.51937 50.45318 0 0 0
183 -15.76546 8.83283 50.51462 0 0 0
184 -16.54554 9.44344 50.68137 0 0 0
185 -17.16412 10.19668 50.80494 0 0 0
186 -17.84285 10.47920 51.52017 0 0 0
187 -18.63631 10.91632 51.60264 0 0 0
188 -19.54982 11.09785 51.90535 0 0 0
189 -20.49426 11.19595 51.66877 0 0 0
190 -21.37381 10.98215 52.05938 0 0 0
191 -21.17828 11.84433 52.24431 0 0 0
192 -21.52215 12.80004 52.32347 0 0 0
193 -22.50900 12.81679 52.31836 0 0 0
194 -22.99381 13.63815 52.20245 0 0 0
195 -23.82552 14.15873 52.18277 0 0 0
196 -24.45425 14.77040 51.81206 0 0 0
197 -25.26589 15.28222 51.69470 0 0 0
198 -26.22943 15.23138 51.96554 0 0 0
199 -26.31476 16.14113 52.35266 0 0 0
200 -27.05067 16.81544 52.06385 0 0 0
201 -26.52899 17.54850 52.57752 0 0 0
202 -9.04458 6.02839 49.67966 0 0 0
203 -8.62309 6.24065 48.74575 0 0 0
204 -8.30933 7.12745 48.48958 0 0 0
205 -8.07592 7.55032 47.61136 0 0 0
206 -7.46533 7.44938 46.86055 0 0 0
207 -6.57359 7.88834 46.95979 0 0 0
208 -5.76959 8.50495 46.71403 0 0 0
209 -5.14391 8.86953 46.06820 0 0 0
210 -4.81850 9.60124 45.46711 0 0 0
211 -4.21822 9.85258 44.69605 0 0 0
212 -3.62980 10.14861 43.99477 0 0 0
213 -2.97077 10.71270 43.52873 0 0 0
214 -2.38439 11.46463 43.36904 0 0 0
215 -1.61959 11.99738 43.20445 0 0 0
216 -0.99357 11.31593 42.97588 0 0 0
217 -0.23498 10.75261 42.81340 0 0 0
218 0.15385 11.55027 42.48325 0 0 0
219 0.42815 11.89427 41.60330 0 0 0
220 1.32738 12.23985 41.56653 0 0 0
221 1.58703 12.54112 40.64425 0 0 0
222 2.27786 12.51009 40.00102 0 0 0
223 3.02856 12.78228 40.65370 0 0 0
224 3.15823 12.31770 41.53194 0 0 0
225 3.88657 12.02530 40.82504 0 0 0
226 3.79280 10.98131 40.88995 0 0 0
227 -9.40751 5.59395 50.90322 0 0 0
228 -8.92540 5.27519 51.66202 0 0 0
229 -8.64649 5.00656 52.50058 0 0 0
230 -7.69699 4.98837 52.92204 0 0 0
231 -7.56709 5.01291 53.82843 0 0 0
232 -6.74487 4.98030 54.40254 0 0 0
233 -5.78433 5.07984 54.60727 0 0 0
234 -5.30213 4.81373 55.43292 0 0 0
235 -4.55738 4.45827 55.97190 0 0 0
236 -3.94236 4.28393 56.72813 0 0 0
237 -3.58336 4.52069 57.60822 0 0 0
238 -2.96176 4.73830 58.51622 0 0 0
239 -2.38095 4.63378 59.36065 0 0 0
240 -1.70233 4.45553 60.10928 0 0 0
241 -0.93249 4.72448 60.72668 0 0 0
242 -0.43222 5.09283 61.50541 0 0 0
243 0.33651 5.47475 62.02461 0 0 0
244 0.38905 5.41695 62.97151 0 0 0
245 1.06914 5.45407 63.78256 0 0 0
246 1.69804 4.95245 64.43877 0 0 0
247 2.72988 4.95622 64.91307 0 0 0
248 3.37781 5.15437 65.65557 0 0 0
249 4.30947 5.54422 65.98533 0 0 0
250 4.34375 6.13530 66.79054 0 0 0
251 4.70977 6.06929 67.72811 0 0 0
252 5.47243 6.03205 67.02045 0 0 0
253 6.48591 5.99176 66.96375 0 0 0
254 7.46390 6.17756 66.65143 0 0 0
255 8.27255 5.70509 66.39831 0 0 0
256 9.22394 5.87065 66.27371 0 0 0
257 10.06234 6.02785 66.76448 0 0 0
258 10.77773 5.48249 67.25144 0 0 0
259 11.49466 5.16768 66.66668 0 0 0
260 12.41885 5.11443 66.34967 0 0 0
261 12.98342 5.00650 67.15718 0 0 0
262 13.83260 5.20190 67.69995 0 0 0
263 14.58253 5.07551 68.31928 0 0 0
264 15.48550 5.20039 68.44267 0 0 0
265 15.92601 4.45983 67.88609 0 0 0
266 16.30842 4.57380 66.97778 0 0 0
267 16.68172 4.45265 65.99968 0 0 0
268 17.31755 4.89663 65.37409 0 0 0
269 18.22387 5.07301 64.99435 0 0 0
270 18.97947 5.32943 64.52978 0 0 0
271 19.86073 5.48946 64.99267 0 0 0
272 20.48254 6.14579 64.79798 0 0 0
273 21.17063 6.93160 64.82174 0 0 0
274 21.25695 7.87203 64.73404 0 0 0
275 21.75057 8.19644 63.92065 0 0 0
276 22.28428 8.93447 63.50903 0 0 0
277 4.72067 5.42932 68.48161 0 0 0
278 4.56836 4.51843 68.28299 0 0 0
279 4.76280 3.93919 69.04448 0 0 0
280 5.23955 3.31097 69.53017 0 0 0
281 5.07748 3.92622 70.27513 0 0 0
282 5.46264 3.80850 71.13204 0 0 0
283 5.85115 3.42130 71.92098 0 0 0
284 5.19852 2.76422 72.24862 0 0 0
285 4.59625 2.06021 72.58838 0 0 0
286 5.33611 1.61901 73.12387 0 0 0
287 5.86050 0.90475 73.46852 0 0 0
288 5.19818 0.43365 74.05080 0 0 0
289 4.84324 0.41726 74.91908 0 0 0
290 4.11766 0.56927 75.62083 0 0 0
291 4.05049 0.20671 76.47880 0 0 0
292 4.15147 -0.74628 76.85625 0 0 0
293 4.20754 -0.74788 77.83312 0 0 0
294 3.75003 -1.15398 78.59765 0 0 0
295 3.65691 -1.82674 79.32745 0 0 0
296 3.37092 -1.87208 80.32741 0 0 0
297 3.14120 -2.69682 80.79071 0 0 0
298 3.17086 -3.08359 81.69519 0 0 0
299 2.82632 -2.22302 81.90855 0 0 0
300 2.88309 -1.29857 81.67917 0 0 0
301 3.69228 -1.59303 81.31110 0 0 0
302 3.80222 6.53128 68.07914 0 0 0
303 3.83330 7.50963 68.38049 0 0 0
304 3.06362 8.23429 68.22768 0 0 0
305 3.25718 9.15469 68.55184 0 0 0
306 3.16207 9.94048 69.19330 0 0 0
307 2.93081 10.79138 69.59506 0 0 0
308 2.39702 11.60536 69.57375 0 0 0
309 2.28245 12.49089 69.98353 0 0 0
310 2.26705 13.30779 69.50448 0 0 0
311 1.99025 14.26002 69.43189 0 0 0
312 1.53385 15.00809 69.81445 0 0 0
313 1.23004 15.92329 69.87871 0 0 0
314 0.92274 16.81407 69.79610 0 0 0
315 0.39464 17.57930 70.04976 0 0 0
316 -0.15136 18.14163 70.70684 0 0 0
317 -0.77412 18.91269 70.43353 0 0 0
318 -0.97894 19.29093 71.36354 0 0 0
319 -1.56023 19.72471 71.93741 0 0 0
320 -2.48132 20.09573 72.07468 0 0 0
321 -2.77876 20.92686 71.78611 0 0 0
322 -3.33610 21.69913 71.98499 0 0 0
323 -3.34870 22.66735 71.86736 0 0 0
324 -4.00547 23.43970 71.78612 0 0 0
325 -4.47757 24.23042 71.41744 0 0 0
326 -4.42080 24.81088 72.18259 0 0 0
327 -3.90998 25.39769 71.52056 0 0 0
328 -3.99537 25.94702 70.66340 0 0 0
329 -3.82423 26.02320 69.70678 0 0 0
330 -3.62704 26.19496 68.69036 0 0 0
331 -3.03967 26.42256 67.91784 0 0 0
332 -2.49099 26.37518 67.03206 0 0 0
333 -1.90809 26.06188 66.28152 0 0 0
334 -1.44279 26.36814 65.49823 0 0 0
335 -1.21672 26.12804 64.55814 0 0 0
336 -0.95239 26.09382 63.59636 0 0 0
337 -1.17417 26.16716 62.65817 0 0 0
338 -1.07682 25.46342 62.04842 0 0 0
339 -0.96915 25.22309 61.01059 0 0 0
340 -1.88030 25.14479 60.72518 0 0 0
341 -1.78959 24.78212 59.79127 0 0 0
342 -2.62724 25.20140 59.41363 0 0 0
343 -3.04808 24.89945 58.55312 0 0 0
344 -3.20215 24.75108 57.59592 0 0 0
345 -2.76073 24.17150 56.91924 0 0 0
346 -1.91774 24.32972 56.32638 0 0 0
347 -1.24446 24.45388 55.66021 0 0 0
348 -0.59381 24.43969 54.88143 0 0 0
349 -0.59566 24.36765 53.91043 0 0 0
350 -1.00296 23.79963 53.14028 0 0 0
351 -1.74999 23.19553 53.27858 0 0 0
352 -3.91399 24.88836 72.98065 0 0 0
353 -3.25118 25.54099 73.30798 0 0 0
354 -2.49216 26.15818 73.50925 0 0 0
355 -1.77882 26.57897 74.20353 0 0 0
356 -0.96969 27.10363 74.44166 0 0 0
357 -0.22505 27.74637 74.14895 0 0 0
358 0.16843 28.24524 74.90231 0 0 0
359 0.84635 28.68717 75.41337 0 0 0
360 1.82534 28.86301 75.56630 0 0 0
361 2.20221 29.25067 76.38201 0 0 0
362 2.83109 29.96033 76.53580 0 0 0
363 3.02260 30.90709 76.88977 0 0 0
364 3.01931 31.81442 76.46351 0 0 0
365 3.39325 32.71546 76.73850 0 0 0
366 4.24313 33.16478 77.03960 0 0 0
367 5.01097 33.42171 77.50515 0 0 0
368 5.40832 34.33255 77.32500 0 0 0
369 5.88727 35.13356 77.82657 0 0 0
370 6.09590 35.98071 78.16408 0 0 0
371 6.38125 36.86145 78.66536 0 0 0
372 7.31812 36.77649 78.60351 0 0 0
373 7.93533 37.63540 78.31326 0 0 0
374 8.33639 38.48600 78.59729 0 0 0
375 8.34469 39.25490 79.22506 0 0 0
376 8.71897 40.10273 78.96768 0 0 0
377 -5.05791 25.11602 72.84814 0 0 0
378 -5.86970 25.43614 73.33222 0 0 0
379 -5.61546 26.24128 73.88459 0 0 0
380 -6.06933 27.20145 73.78565 0 0 0
381 -7.13054 27.39362 73.53725 0 0 0
382 -8.12313 27.06618 73.47909 0 0 0
383 -8.96350 26.68541 73.79007 0 0 0
384 -9.62535 27.35013 74.26261 0 0 0
385 -10.50231 27.06201 74.50543 0 0 0
386 -11.34802 26.52159 74.51567 0 0 0
387 -12.25118 26.87862 74.41164 0 0 0
388 -13.11262 27.36928 74.23175 0 0 0
389 -13.97311 27.73736 74.00380 0 0 0
390 -14.89155 28.00860 74.17800 0 0 0
391 -15.75341 28.22092 74.53613 0 0 0
392 -16.58444 27.78342 74.40310 0 0 0
393 -17.12545 28.39101 75.01711 0 0 0
394 -17.63232 29.16607 74.52129 0 0 0
395 -18.59687 29.17321 74.39696 0 0 0
396 -18.97777 28.93040 75.25148 0 0 0
397 -19.64732 28.40486 75.87064 0 0 0
398 -20.19394 27.68699 76.36308 0 0 0
399 -20.74121 27.02996 75.95854 0 0 0
400 -20.54295 26.31412 75.30660 0 0 0
401 -20.13028 25.78590 74.66381 0 0 0
ITEM: TIMESTEP
2000
ITEM: NUMBER OF ATOMS
401
ITEM: BOX BOUNDS pp pp pp
-1.0000000000000000e+03 1.0000000000000000e+03
-1.0000000000000000e+03 1.0000000000000000e+03
-1.0000000000000000e+03 1.0000000000000000e+03
ITEM: ATOMS id x y z ix iy iz
1 -1.00253 1.29977 8.03311 0 0 0
2 -1.46658 2.05174 7.71365 0 0 0