ITEM: TIMESTEP
0
ITEM: NUMBER OF ATOMS
497
ITEM: BOX BOUNDS pp pp pp
-1.0000000000000000e+03 1.0000000000000000e+03
-1.0000000000000000e+03 1.0000000000000000e+03
-1.0000000000000000e+03 1.0000000000000000e+03
ITEM: ATOMS id x y z ix iy iz
1 0.00000 0.00000 0.00000 0 0 0
2 0.00000 0.00000 1.00000 0 0 0
3 0.00000 -0.50000 1.86603 0 0 0
4 0.00000 0.00000 2.73205 0 0 0
5 0.00000 -0.50000 3.59808 0 0 0
6 0.00000 0.00000 4.46410 0 0 0
7 0.00000 -0.50000 5.33013 0 0 0
8 0.00000 0.00000 6.19615 0 0 0
9 0.00000 -0.50000 7.06218 0 0 0
10 0.00000 0.00000 7.92820 0 0 0
11 0.00000 -0.50000 8.79423 0 0 0
12 0.00000 0.00000 9.66025 0 0 0
13 0.00000 -0.50000 10.52628 0 0 0
14 0.00000 0.00000 11.39230 0 0 0
15 0.00000 -0.50000 12.25833 0 0 0
16 0.00000 0.00000 13.12436 0 0 0
17 0.00000 -0.50000 13.99038 0 0 0
18 0.00000 0.00000 14.85641 0 0 0
19 0.00000 -0.50000 15.72243 0 0 0
20 0.00000 0.00000 16.58846 0 0 0
21 0.00000 -0.50000 17.45448 0 0 0
22 0.00000 0.00000 18.32051 0 0 0
23 0.00000 -0.50000 19.18653 0 0 0
24 0.00000 0.00000 20.05256 0 0 0
25 0.00000 -0.50000 20.91858 0 0 0
26 0.00000 0.00000 21.78461 0 0 0
27 0.00000 -0.50000 22.65064 0 0 0
28 0.00000 0.00000 23.51666 0 0 0
29 0.00000 -0.50000 24.38269 0 0 0
30 0.00000 0.00000 25.24871 0 0 0
31 0.00000 -0.50000 26.11474 0 0 0
32 0.00000 0.00000 26.98076 0 0 0
33 0.78532 0.61844 27.00915 0 0 0
34 1.57064 1.13983 27.34296 0 0 0
35 2.35595 1.68961 27.05832 0 0 0
36 3.14127 2.21100 27.39213 0 0 0
37 3.92659 2.76078 27.10750 0 0 0
38 4.71191 3.28218 27.44130 0 0 0
39 5.49723 3.83196 27.15667 0 0 0
40 6.28254 4.35335 27.49048 0 0 0
41 7.06786 4.90313 27.20584 0 0 0
42 7.85318 5.42452 27.53965 0 0 0
43 8.63850 5.97430 27.25501 0 0 0
44 9.42382 6.49569 27.58882 0 0 0
45 10.20914 7.04547 27.30419 0 0 0
46 10.99445 7.56686 27.63799 0 0 0
47 11.77977 8.11664 27.35336 0 0 0
48 12.56509 8.63803 27.68717 0 0 0
49 13.35041 9.18781 27.40253 0 0 0
50 14.13573 9.70920 27.73634 0 0 0
51 14.92104 10.25899 27.45170 0 0 0
52 15.70636 10.78038 27.78551 0 0 0
53 16.49168 11.33016 27.50088 0 0 0
54 17.27700 11.85155 27.83468 0 0 0
55 18.06232 12.40133 27.55005 0 0 0
56 18.84763 12.92272 27.88386 0 0 0
57 19.63295 13.47250 27.59922 0 0 0
58 20.41827 13.99389 27.93303 0 0 0
59 21.20359 14.54367 27.64839 0 0 0
60 21.98891 15.06506 27.98220 0 0 0
61 22.77422 15.61484 27.69757 0 0 0
62 23.55954 16.13623 28.03137 0 0 0
63 24.34486 16.68601 27.74674 0 0 0
64 0.05888 -0.64785 27.74025 0 0 0
65 0.11776 -1.58865 28.07405 0 0 0
66 0.17664 -1.76997 29.05572 0 0 0
67 0.23551 -2.71077 29.38952 0 0 0
68 0.29439 -2.89209 30.37118 0 0 0
69 0.35327 -3.83289 30.70499 0 0 0
70 0.41215 -4.01420 31.68665 0 0 0
71 0.47103 -4.95500 32.02046 0 0 0
72 0.52991 -5.13632 33.00212 0 0 0
73 0.58879 -6.07712 33.33593 0 0 0
74 0.64767 -6.25843 34.31759 0 0 0
75 0.70654 -7.19924 34.65139 0 0 0
76 0.76542 -7.38055 35.63305 0 0 0
77 0.82430 -8.32135 35.96686 0 0 0
78 0.88318 -8.50267 36.94852 0 0 0
79 0.94206 -9.44347 37.28233 0 0 0
80 1.00094 -9.62478 38.26399 0 0 0
81 1.05982 -10.56558 38.59780 0 0 0
82 1.11870 -10.74690 39.57946 0 0 0
83 1.17757 -11.68770 39.91326 0 0 0
84 1.23645 -11.86901 40.89493 0 0 0
85 1.29533 -12.80982 41.22873 0 0 0
86 1.35421 -12.99113 42.21039 0 0 0
87 1.41309 -13.93193 42.54420 0 0 0
88 1.47197 -14.11325 43.52586 0 0 0
89 1.53085 -15.05405 43.85967 0 0 0
90 1.58973 -15.23536 44.84133 0 0 0
91 1.64860 -16.17616 45.17514 0 0 0
92 1.70748 -16.35748 46.15680 0 0 0
93 1.76636 -17.29828 46.49060 0 0 0
94 1.82524 -17.47960 47.47226 0 0 0
95 -0.84420 0.53012 27.06014 0 0 0
96 -1.68839 0.94953 27.39395 0 0 0
97 -2.53259 1.44832 27.19763 0 0 0
98 -3.37679 1.86773 27.53144 0 0 0
99 -4.22098 2.36652 27.33512 0 0 0
100 -5.06518 2.78593 27.66893 0 0 0
101 -5.90938 3.28472 27.47261 0 0 0
102 -6.75357 3.70413 27.80642 0 0 0
103 -7.59777 4.20292 27.61010 0 0 0
104 -8.44197 4.62233 27.94391 0 0 0
105 -9.28616 5.12112 27.74760 0 0 0
106 -10.13036 5.54053 28.08140 0 0 0
107 -10.97456 6.03932 27.88509 0 0 0
108 -11.81876 6.45873 28.21889 0 0 0
109 -12.66295 6.95752 28.02258 0 0 0
110 -13.50715 7.37693 28.35638 0 0 0
111 -14.35135 7.87572 28.16007 0 0 0
112 -15.19554 8.29513 28.49387 0 0 0
113 -16.03974 8.79392 28.29756 0 0 0
114 -16.88394 9.21333 28.63136 0 0 0
115 -17.72813 9.71212 28.43505 0 0 0
116 -18.57233 10.13153 28.76886 0 0 0
117 -19.41653 10.63032 28.57254 0 0 0
118 -20.26072 11.04973 28.90635 0 0 0
119 -21.10492 11.54853 28.71003 0 0 0
120 -21.94912 11.96794 29.04384 0 0 0
121 -22.79331 12.46673 28.84752 0 0 0
122 -23.63751 12.88614 29.18133 0 0 0
123 -24.48171 13.38493 28.98501 0 0 0
124 -25.32590 13.80434 29.31882 0 0 0
125 -26.17010 14.30313 29.12250 0 0 0
126 -26.79974 13.70946 28.62138 0 0 0
127 -27.42939 13.44590 27.89057 0 0 0
128 -28.05903 12.68121 27.75343 0 0 0
129 -28.68867 12.41765 27.02262 0 0 0
130 -29.31831 11.65296 26.88547 0 0 0
131 -29.94795 11.38940 26.15466 0 0 0
132 -30.57760 10.62471 26.01751 0 0 0
133 -31.20724 10.36115 25.28670 0 0 0
134 -31.83688 9.59646 25.14955 0 0 0
135 -32.46652 9.33289 24.41874 0 0 0
136 -33.09616 8.56821 24.28159 0 0 0
137 -33.72580 8.30464 23.55078 0 0 0
138 -34.35545 7.53996 23.41363 0 0 0
139 -34.98509 7.27639 22.68282 0 0 0
140 -35.61473 6.51171 22.54567 0 0 0
141 -36.24437 6.24814 21.81486 0 0 0
142 -36.87401 5.48346 21.67771 0 0 0
143 -37.50366 5.21989 20.94690 0 0 0
144 -38.13330 4.45521 20.80975 0 0 0
145 -38.76294 4.19164 20.07894 0 0 0
146 -39.39258 3.42696 19.94179 0 0 0
147 -40.02222 3.16339 19.21098 0 0 0
148 -40.65187 2.39871 19.07383 0 0 0
149 -41.28151 2.13514 18.34302 0 0 0
150 -41.91115 1.37046 18.20587 0 0 0
151 -42.54079 1.10689 17.47506 0 0 0
152 -43.17043 0.34221 17.33791 0 0 0
153 -43.80008 0.07864 16.60710 0 0 0
154 -44.42972 -0.68605 16.46995 0 0 0
155 -45.05936 -0.94961 15.73914 0 0 0
156 -45.68900 -1.71430 15.60199 0 0 0
157 -25.96058 15.10902 28.56876 0 0 0
158 -25.75106 16.08382 28.49215 0 0 0
159 -25.54154 16.50487 27.60964 0 0 0
160 -25.33203 17.47967 27.53303 0 0 0
161 -25.12251 17.90073 26.65052 0 0 0
162 -24.91299 18.87552 26.57391 0 0 0
163 -24.70347 19.29658 25.69141 0 0 0
164 -24.49395 20.27138 25.61480 0 0 0
165 -24.28443 20.69243 24.73229 0 0 0
166 -24.07491 21.66723 24.65568 0 0 0
167 -23.86539 22.08828 23.77318 0 0 0
168 -23.65587 23.06308 23.69657 0 0 0
169 -23.44636 23.48413 22.81406 0 0 0
170 -23.23684 24.45893 22.73745 0 0 0
171 -23.02732 24.87999 21.85495 0 0 0
172 -22.81780 25.85478 21.77834 0 0 0
173 -22.60828 26.27584 20.89583 0 0 0
174 -22.39876 27.25064 20.81922 0 0 0
175 -22.18924 27.67169 19.93672 0 0 0
176 -21.97972 28.64649 19.86011 0 0 0
177 -21.77020 29.06754 18.97760 0 0 0
178 -21.56068 30.04234 18.90099 0 0 0
179 -21.35117 30.46339 18.01849 0 0 0
180 -21.14165 31.43819 17.94188 0 0 0
181 -20.93213 31.85925 17.05937 0 0 0
182 -20.72261 32.83404 16.98276 0 0 0
183 -20.51309 33.25510 16.10025 0 0 0
184 -20.30357 34.22990 16.02364 0 0 0
185 -20.09405 34.65095 15.14114 0 0 0
186 -19.88453 35.62575 15.06453 0 0 0
187 -19.67501 36.04680 14.18202 0 0 0
188 -26.59537 14.59039 29.98077 0 0 0
189 -27.02065 14.41003 30.86768 0 0 0
190 -27.44592 15.08795 31.46733 0 0 0
191 -27.87119 14.90759 32.35424 0 0 0
192 -28.29647 15.58550 32.95389 0 0 0
193 -28.72174 15.40515 33.84081 0 0 0
194 -29.14701 16.08306 34.44045 0 0 0
195 -29.57229 15.90270 35.32737 0 0 0
196 -29.99756 16.58061 35.92702 0 0 0
197 -30.42283 16.40026 36.81393 0 0 0
198 -30.84810 17.07817 37.41358 0 0 0
199 -31.27338 16.89781 38.30049 0 0 0
200 -31.69865 17.57573 38.90014 0 0 0
201 -32.12392 17.39537 39.78705 0 0 0
202 -32.54920 18.07328 40.38670 0 0 0
203 -32.97447 17.89293 41.27362 0 0 0
204 -33.39974 18.57084 41.87326 0 0 0
205 -33.82502 18.39048 42.76018 0 0 0
206 -34.25029 19.06839 43.35983 0 0 0
207 -34.67556 18.88804 44.24674 0 0 0
208 -35.10083 19.56595 44.84639 0 0 0
209 -35.52611 19.38559 45.73330 0 0 0
210 -35.95138 20.06350 46.33295 0 0 0
211 -36.37665 19.88315 47.21986 0 0 0
212 -36.80193 20.56106 47.81951 0 0 0
213 -37.22720 20.38071 48.70643 0 0 0
214 -37.65247 21.05862 49.30607 0 0 0
215 -38.07775 20.87826 50.19299 0 0 0
216 -38.50302 21.55617 50.79264 0 0 0
217 -38.92829 21.37582 51.67955 0 0 0
218 -39.35356 22.05373 52.27920 0 0 0
219 -40.31253 21.81262 52.42834 0 0 0
220 -41.27150 21.52924 52.43695 0 0 0
221 -42.23047 21.39500 52.68667 0 0 0
222 -43.18944 21.11162 52.69528 0 0 0
223 -44.14841 20.97739 52.94500 0 0 0
224 -45.10738 20.69401 52.95361 0 0 0
225 -46.06635 20.55977 53.20333 0 0 0
226 -47.02532 20.27639 53.21194 0 0 0
227 -47.98428 20.14215 53.46165 0 0 0
228 -48.94325 19.85877 53.47026 0 0 0
229 -49.90222 19.72454 53.71998 0 0 0
230 -50.86119 19.44116 53.72859 0 0 0
231 -51.82016 19.30692 53.97831 0 0 0
232 -52.77913 19.02354 53.98692 0 0 0
233 -53.73810 18.88931 54.23664 0 0 0
234 -54.69707 18.60593 54.24525 0 0 0
235 -55.65604 18.47169 54.49496 0 0 0
236 -56.61500 18.18831 54.50357 0 0 0
237 -57.57397 18.05408 54.75329 0 0 0
238 -58.53294 17.77069 54.76190 0 0 0
239 -59.49191 17.63646 55.01162 0 0 0
240 -60.45088 17.35308 55.02023 0 0 0
241 -61.40985 17.21884 55.26995 0 0 0
242 -62.36882 16.93546 55.27856 0 0 0
243 -63.32779 16.80123 55.52827 0 0 0
244 -64.28676 16.51785 55.53688 0 0 0
245 -65.24572 16.38361 55.78660 0 0 0
246 -66.20469 16.10023 55.79521 0 0 0
247 -67.16366 15.96600 56.04493 0 0 0
248 -68.12263 15.68262 56.05354 0 0 0
249 -69.08160 15.54838 56.30326 0 0 0
250 -39.29979 22.95679 51.85308 0 0 0
251 -39.24602 23.95193 51.93558 0 0 0
252 -39.19225 24.52095 51.11501 0 0 0
253 -39.13847 25.51609 51.19751 0 0 0
254 -39.08470 26.08511 50.37695 0 0 0
255 -39.03093 27.08025 50.45945 0 0 0
256 -38.97716 27.64926 49.63888 0 0 0
257 -38.92338 28.64440 49.72138 0 0 0
258 -38.86961 29.21342 48.90081 0 0 0
259 -38.81584 30.20856 48.98331 0 0 0
260 -38.76206 30.77758 48.16275 0 0 0
261 -38.70829 31.77272 48.24525 0 0 0
262 -38.65452 32.34173 47.42468 0 0 0
263 -38.60075 33.33687 47.50718 0 0 0
264 -38.54697 33.90589 46.68662 0 0 0
265 -38.49320 34.90103 46.76912 0 0 0
266 -38.43943 35.47004 45.94855 0 0 0
267 -38.38565 36.46518 46.03105 0 0 0
268 -38.33188 37.03420 45.21049 0 0 0
269 -38.27811 38.02934 45.29299 0 0 0
270 -38.22434 38.59836 44.47242 0 0 0
271 -38.17056 39.59350 44.55492 0 0 0
272 -38.11679 40.16251 43.73436 0 0 0
273 -38.06302 41.15765 43.81686 0 0 0
274 -38.00924 41.72667 42.99629 0 0 0
275 -37.95547 42.72181 43.07879 0 0 0
276 -37.90170 43.29083 42.25822 0 0 0
277 -37.84793 44.28597 42.34073 0 0 0
278 -37.79415 44.85498 41.52016 0 0 0
279 -37.74038 45.85012 41.60266 0 0 0
280 -37.68661 46.41914 40.78209 0 0 0
281 -38.87425 22.07065 53.15668 0 0 0
282 -38.39493 21.64656 53.92505 0 0 0
283 -37.91561 22.09995 54.67651 0 0 0
284 -37.43629 21.67587 55.44489 0 0 0
285 -36.95697 22.12926 56.19635 0 0 0
286 -36.47765 21.70517 56.96473 0 0 0
287 -35.99833 22.15856 57.71618 0 0 0
288 -35.51901 21.73448 58.48456 0 0 0
289 -35.03969 22.18787 59.23602 0 0 0
290 -34.56038 21.76378 60.00440 0 0 0
291 -34.08106 22.21717 60.75586 0 0 0
292 -33.60174 21.79308 61.52423 0 0 0
293 -33.12242 22.24648 62.27569 0 0 0
294 -32.64310 21.82239 63.04407 0 0 0
295 -32.16378 22.27578 63.79553 0 0 0
296 -31.68446 21.85169 64.56391 0 0 0
297 -31.20514 22.30509 65.31536 0 0 0
298 -30.72582 21.88100 66.08374 0 0 0
299 -30.24651 22.33439 66.83520 0 0 0
300 -29.76719 21.91030 67.60358 0 0 0
301 -29.28787 22.36369 68.35504 0 0 0
302 -28.80855 21.93961 69.12341 0 0 0
303 -28.32923 22.39300 69.87487 0 0 0
304 -27.84991 21.96891 70.64325 0 0 0
305 -27.37059 22.42230 71.39471 0 0 0
306 -26.89127 21.99822 72.16309 0 0 0
307 -26.41195 22.45161 72.91454 0 0 0
308 -25.93264 22.02752 73.68292 0 0 0
309 -25.45332 22.48091 74.43438 0 0 0
310 -24.97400 22.05683 75.20276 0 0 0
311 -24.49468 22.51022 75.95422 0 0 0
312 -24.35809 23.47496 75.72923 0 0 0
313 -24.22150 24.42294 76.01676 0 0 0
314 -24.08491 25.14594 75.33954 0 0 0
315 -23.94832 26.09392 75.62707 0 0 0
316 -23.81173 26.81692 74.94985 0 0 0
317 -23.67514 27.76490 75.23738 0 0 0
318 -23.53855 28.48790 74.56016 0 0 0
319 -23.40196 29.43588 74.84769 0 0 0
320 -23.26537 30.15888 74.17047 0 0 0
321 -23.12877 31.10686 74.45800 0 0 0
322 -22.99218 31.82986 73.78079 0 0 0
323 -22.85559 32.77784 74.06831 0 0 0
324 -22.71900 33.50083 73.39110 0 0 0
325 -22.58241 34.44882 73.67862 0 0 0
326 -22.44582 35.17181 73.00141 0 0 0
327 -22.30923 36.11980 73.28893 0 0 0
328 -22.17264 36.84279 72.61172 0 0 0
329 -22.03605 37.79078 72.89925 0 0 0
330 -21.89946 38.51377 72.22203 0 0 0
331 -21.76287 39.46176 72.50956 0 0 0
332 -21.62628 40.18475 71.83234 0 0 0
333 -21.48969 41.13273 72.11987 0 0 0
334 -21.35310 41.85573 71.44265 0 0 0
335 -21.21651 42.80371 71.73018 0 0 0
336 -21.07992 43.52671 71.05296 0 0 0
337 -20.94333 44.47469 71.34049 0 0 0
338 -20.80674 45.19769 70.66328 0 0 0
339 -20.67015 46.14567 70.95080 0 0 0
340 -20.53356 46.86867 70.27359 0 0 0
341 -20.39697 47.81665 70.56111 0 0 0
342 -20.26038 48.53965 69.88390 0 0 0
343 -23.60680 22.07258 76.09614 0 0 0
344 -22.71892 21.62262 76.00023 0 0 0
345 -21.83104 21.31458 76.34196 0 0 0
346 -20.94315 20.86461 76.24605 0 0 0
347 -20.05527 20.55657 76.58777 0 0 0
348 -19.16739 20.10660 76.49186 0 0 0
349 -18.27951 19.79856 76.83359 0 0 0
350 -17.39163 19.34860 76.73768 0 0 0
351 -16.50375 19.04055 77.07941 0 0 0
352 -15.61587 18.59059 76.98350 0 0 0
353 -14.72799 18.28255 77.32522 0 0 0
354 -13.84010 17.83258 77.22931 0 0 0
355 -12.95222 17.52454 77.57104 0 0 0
356 -12.06434 17.07457 77.47513 0 0 0
357 -11.17646 16.76653 77.81686 0 0 0
358 -10.28858 16.31657 77.72095 0 0 0
359 -9.40070 16.00852 78.06267 0 0 0
360 -8.51282 15.55856 77.96676 0 0 0
361 -7.62494 15.25052 78.30849 0 0 0
362 -6.73705 14.80055 78.21258 0 0 0
363 -5.84917 14.49251 78.55431 0 0 0
364 -4.96129 14.04254 78.45840 0 0 0
365 -4.07341 13.73450 78.80012 0 0 0
366 -3.18553 13.28454 78.70421 0 0 0
367 -2.29765 12.97650 79.04594 0 0 0
368 -1.40977 12.52653 78.95003 0 0 0
369 -0.52189 12.21849 79.29176 0 0 0
370 0.36599 11.76852 79.19585 0 0 0
371 1.25388 11.46048 79.53757 0 0 0
372 2.14176 11.01052 79.44166 0 0 0
373 3.02964 10.70247 79.78339 0 0 0
374 -25.03915 22.43715 76.78981 0 0 0
375 -25.58362 21.95607 77.47691 0 0 0
376 -26.12809 22.31059 78.23709 0 0 0
377 -26.67257 21.82951 78.92420 0 0 0
378 -27.21704 22.18403 79.68438 0 0 0
379 -27.76151 21.70295 80.37148 0 0 0
380 -28.30598 22.05747 81.13166 0 0 0
381 -28.85045 21.57639 81.81877 0 0 0
382 -29.39492 21.93091 82.57895 0 0 0
383 -29.93940 21.44983 83.26605 0 0 0
384 -30.48387 21.80435 84.02623 0 0 0
385 -31.02834 21.32327 84.71334 0 0 0
386 -31.57281 21.67779 85.47352 0 0 0
387 -32.11728 21.19671 86.16062 0 0 0
388 -32.66176 21.55123 86.92080 0 0 0
389 -33.20623 21.07015 87.60791 0 0 0
390 -33.75070 21.42467 88.36809 0 0 0
391 -34.29517 20.94359 89.05519 0 0 0
392 -34.83964 21.29811 89.81537 0 0 0
393 -35.38411 20.81704 90.50248 0 0 0
394 -35.92859 21.17155 91.26266 0 0 0
395 -36.47306 20.69048 91.94977 0 0 0
396 -37.01753 21.04499 92.70994 0 0 0
397 -37.56200 20.56392 93.39705 0 0 0
398 -38.10647 20.91843 94.15723 0 0 0
399 -38.65094 20.43736 94.84434 0 0 0
400 -39.19542 20.79187 95.60451 0 0 0
401 -39.73989 20.31080 96.29162 0 0 0
402 -40.28436 20.66531 97.05180 0 0 0
403 -40.82883 20.18424 97.73891 0 0 0
404 -41.37330 20.53875 98.49908 0 0 0
405 -42.16132 21.03914 98.14042 0 0 0
406 -42.94934 21.65182 98.08001 0 0 0
407 -43.73736 21.90584 97.51921 0 0 0
408 -44.52538 22.51852 97.45880 0 0 0
409 -45.31340 22.77254 96.89800 0 0 0
410 -46.10142 23.38522 96.83759 0 0 0
411 -46.88944 23.63924 96.27679 0 0 0
412 -47.67746 24.25192 96.21637 0 0 0
413 -48.46548 24.50594 95.65557 0 0 0
414 -49.25350 25.11862 95.59516 0 0 0
415 -50.04152 25.37264 95.03436 0 0 0
416 -50.82954 25.98531 94.97395 0 0 0
417 -51.61756 26.23934 94.41315 0 0 0
418 -52.40558 26.85201 94.35273 0 0 0
419 -53.19360 27.10603 93.79193 0 0 0
420 -53.98162 27.71871 93.73152 0 0 0
421 -54.76964 27.97273 93.17072 0 0 0
422 -55.55766 28.58541 93.11031 0 0 0
423 -56.34568 28.83943 92.54951 0 0 0
424 -57.13370 29.45211 92.48909 0 0 0
425 -57.92172 29.70613 91.92829 0 0 0
426 -58.70974 30.31881 91.86788 0 0 0
427 -59.49776 30.57283 91.30708 0 0 0
428 -60.28578 31.18551 91.24667 0 0 0
429 -61.07380 31.43953 90.68587 0 0 0
430 -61.86182 32.05221 90.62545 0 0 0
431 -62.64984 32.30623 90.06465 0 0 0
432 -63.43786 32.91891 90.00424 0 0 0
433 -64.22588 33.17293 89.44344 0 0 0
434 -65.01390 33.78561 89.38303 0 0 0
435 -65.80192 34.03963 88.82223 0 0 0
436 -40.81238 21.15396 99.05305 0 0 0
437 -40.25145 21.40977 99.84040 0 0 0
438 -39.69053 22.21954 100.01255 0 0 0
439 -39.12960 22.47534 100.79990 0 0 0
440 -38.56868 23.28511 100.97205 0 0 0
441 -38.00776 23.54092 101.75940 0 0 0
442 -37.44683 24.35069 101.93154 0 0 0
443 -36.88591 24.60650 102.71890 0 0 0
444 -36.32498 25.41627 102.89104 0 0 0
445 -35.76406 25.67207 103.67840 0 0 0
446 -35.20313 26.48184 103.85054 0 0 0
447 -34.64221 26.73765 104.63790 0 0 0
448 -34.08128 27.54742 104.81004 0 0 0
449 -33.52036 27.80323 105.59739 0 0 0
450 -32.95943 28.61300 105.76954 0 0 0
451 -32.39851 28.86880 106.55689 0 0 0
452 -31.83758 29.67857 106.72904 0 0 0
453 -31.27666 29.93438 107.51639 0 0 0
454 -30.71573 30.74415 107.68854 0 0 0
455 -30.15481 30.99996 108.47589 0 0 0
456 -29.59389 31.80973 108.64803 0 0 0
457 -29.03296 32.06553 109.43539 0 0 0
458 -28.47204 32.87530 109.60753 0 0 0
459 -27.91111 33.13111 110.39489 0 0 0
460 -27.35019 33.94088 110.56703 0 0 0
461 -26.78926 34.19668 111.35439 0 0 0
462 -26.22834 35.00646 111.52653 0 0 0
463 -25.66741 35.26226 112.31388 0 0 0
464 -25.10649 36.07203 112.48603 0 0 0
465 -24.54556 36.32784 113.27338 0 0 0
466 -23.98464 37.13761 113.44553 0 0 0
467 -41.69145 19.77817 99.06503 0 0 0
468 -42.00960 18.83651 99.17487 0 0 0
469 -42.32775 18.46081 100.04528 0 0 0
470 -42.64590 17.51915 100.15512 0 0 0
471 -42.96405 17.14344 101.02553 0 0 0
472 -43.28220 16.20178 101.13537 0 0 0
473 -43.60035 15.82608 102.00578 0 0 0
474 -43.91850 14.88442 102.11562 0 0 0
475 -44.23665 14.50871 102.98603 0 0 0
476 -44.55480 13.56705 103.09587 0 0 0
477 -44.87295 13.19135 103.96628 0 0 0
478 -45.19110 12.24969 104.07612 0 0 0
479 -45.50925 11.87398 104.94654 0 0 0
480 -45.82740 10.93232 105.05637 0 0 0
481 -46.14555 10.55662 105.92679 0 0 0
482 -46.46370 9.61496 106.03662 0 0 0
483 -46.78185 9.23925 106.90704 0 0 0
484 -47.10000 8.29759 107.01687 0 0 0
485 -47.41815 7.92189 107.88729 0 0 0
486 -47.73630 6.98023 107.99712 0 0 0
487 -48.05445 6.60452 108.86754 0 0 0
488 -48.37260 5.66286 108.97737 0 0 0
489 -48.69075 5.28716 109.84779 0 0 0
490 -49.00890 4.34550 109.95762 0 0 0
491 -49.32705 3.96979 110.82804 0 0 0
492 -49.64520 3.02813 110.93787 0 0 0
493 -49.96335 2.65243 111.80829 0 0 0
494 -50.28150 1.71077 111.91813 0 0 0
495 -50.59965 1.33506 112.78854 0 0 0
496 -50.91780 0.39340 112.89838 0 0 0
497 -51.23595 0.01770 113.76879 0 0 0
ITEM: TIMESTEP
1000
ITEM: NUMBER OF ATOMS
497
ITEM: BOX BOUNDS pp pp pp
-1.0000000000000000e+03 1.0000000000000000e+03
-1.0000000000000000e+03 1.0000000000000000e+03
-1.0000000000000000e+03 1.0000000000000000e+03
ITEM: ATOMS id x y z ix iy iz
1 2.62545 1.87875 4.43715 0 0 0
2 1.89290 1.78833 5.11972 0 0 0
3 1.91936 0.88274 5.67661 0 0 0
4 2.52135 1.46935 6.28700 0 0 0
5 1.86361 2.12733 6.34968 0 0 0
6 1.18786 1.48936 6.47795 0 0 0
7 0.47303 1.03273 7.03582 0 0 0
8 -0.09422 1.43407 7.83303 0 0 0
9 0.00713 2.22328 8.44451 0 0 0
10 0.34752 2.62173 9.24566 0 0 0
11 0.91426 2.08148 9.86918 0 0 0
12 0.57841 2.08929 10.84764 0 0 0
13 0.45436 1.57297 11.70027 0 0 0
14 0.67997 1.15326 12.54114 0 0 0
15 -0.07157 0.60793 12.74855 0 0 0
16 -0.03013 0.55731 13.77541 0 0 0
17 0.60565 1.11494 14.41485 0 0 0
18 1.32477 0.85209 15.08646 0 0 0
19 0.99112 1.45327 15.85737 0 0 0
20 0.85972 1.56219 16.86878 0 0 0
21 0.58877 1.60839 17.80270 0 0 0
22 1.01261 1.42169 18.71853 0 0 0
23 0.61868 1.00538 19.45717 0 0 0
24 0.73767 0.35701 20.11530 0 0 0
25 0.55798 0.69094 21.12471 0 0 0
26 -0.04747 0.52925 21.96229 0 0 0
27 -0.92773 0.61368 22.24842 0 0 0
28 -0.62931 0.08182 22.97307 0 0 0
29 -0.91416 0.03403 23.90402 0 0 0
30 -0.92212 0.80239 24.46005 0 0 0
31 -0.95435 0.68699 25.48674 0 0 0
32 -0.83951 0.79298 26.42848 0 0 0
33 -0.33387 1.55175 26.92723 0 0 0
34 0.00167 2.28183 26.36456 0 0 0
35 0.81946 2.84260 26.62904 0 0 0
36 1.46596 3.59416 26.63098 0 0 0
37 2.38006 3.38044 27.08845 0 0 0
38 2.98291 4.01667 26.64440 0 0 0
39 3.91852 4.00487 26.52773 0 0 0
40 4.80547 4.14672 26.18829 0 0 0
41 5.27712 4.46221 27.01180 0 0 0
42 5.32453 5.39865 27.34444 0 0 0
43 5.71032 6.10903 26.78071 0 0 0
44 6.51789 6.63599 26.56316 0 0 0
45 7.13367 7.25075 27.04726 0 0 0
46 8.07976 7.43692 26.84841 0 0 0
47 8.76189 8.08108 26.95003 0 0 0
48 9.71651 8.45825 26.98260 0 0 0
49 10.62579 8.82732 27.04515 0 0 0
50 11.41244 8.26493 27.15093 0 0 0
51 12.21149 8.03946 26.72276 0 0 0
52 13.17579 8.30353 26.66232 0 0 0
53 13.99427 8.57117 26.98242 0 0 0
54 14.71547 9.09414 26.60508 0 0 0
55 15.04723 10.03033 26.51859 0 0 0
56 15.17030 10.90240 26.13853 0 0 0
57 15.64535 11.73561 25.82271 0 0 0
58 16.23109 12.45571 25.42661 0 0 0
59 16.41512 13.32633 25.05456 0 0 0
60 17.16557 13.87091 25.23700 0 0 0
61 17.64290 14.78144 25.13684 0 0 0
62 18.16152 14.20307 24.47828 0 0 0
63 18.44644 13.23090 24.25747 0 0 0
64 -0.37449 0.32080 27.10365 0 0 0
65 -0.02014 -0.39917 27.71963 0 0 0
66 0.19682 -1.35978 27.97951 0 0 0
67 0.34884 -1.92232 28.74274 0 0 0
68 0.26809 -2.23687 29.61534 0 0 0
69 0.03832 -2.87019 30.30427 0 0 0
70 -0.19900 -3.26526 31.18564 0 0 0
71 0.47935 -3.32794 31.90684 0 0 0
72 0.42275 -4.05962 32.53795 0 0 0
73 0.32721 -5.02953 32.88814 0 0 0
74 -0.37148 -5.68184 33.14090 0 0 0
75 -0.34010 -6.57552 33.65600 0 0 0
76 0.48566 -6.82016 34.01072 0 0 0
77 0.78007 -7.35317 34.83232 0 0 0
78 0.16381 -7.96372 35.17639 0 0 0
79 0.09540 -8.90757 35.34801 0 0 0
80 0.13554 -9.97049 35.11975 0 0 0
81 0.11391 -10.62903 35.82622 0 0 0
82 0.08263 -11.07728 36.72745 0 0 0
83 0.30632 -11.98856 37.03689 0 0 0
84 0.64296 -12.39279 37.80444 0 0 0
85 0.68119 -12.95778 38.59294 0 0 0
86 0.68682 -12.74568 39.60923 0 0 0
87 0.35930 -12.57817 40.52631 0 0 0
88 -0.42882 -11.96118 40.50878 0 0 0
89 0.13191 -11.91173 41.36109 0 0 0
90 0.21134 -12.23774 42.29175 0 0 0
91 0.00518 -12.27271 43.26620 0 0 0
92 0.52272 -13.08000 43.47198 0 0 0
93 0.73127 -13.94187 44.02773 0 0 0
94 1.63383 -14.26749 44.09014 0 0 0
95 -1.70054 0.95967 26.81646 0 0 0
96 -2.55625 1.26054 27.25642 0 0 0
97 -2.92187 2.17862 27.23910 0 0 0
98 -3.79386 2.67581 27.42052 0 0 0
99 -4.60227 3.23176 27.21272 0 0 0
100 -5.30386 3.89563 26.96206 0 0 0
101 -6.09805 4.41987 27.03881 0 0 0
102 -6.86338 4.88396 27.52578 0 0 0
103 -7.59896 4.59430 28.10485 0 0 0
104 -8.51091 4.86135 28.29248 0 0 0
105 -9.51621 4.85231 28.31746 0 0 0
106 -10.26317 4.89146 28.92675 0 0 0
107 -11.17615 5.32093 29.11862 0 0 0
108 -11.91663 5.87586 28.89962 0 0 0
109 -12.94849 5.84096 28.67367 0 0 0
110 -13.81962 5.47183 28.54707 0 0 0
111 -14.45472 6.24126 28.61709 0 0 0
112 -15.20502 6.74210 28.90508 0 0 0
113 -16.01680 7.25114 28.77555 0 0 0
114 -16.86129 7.70747 28.84696 0 0 0
115 -17.67569 8.18749 28.59030 0 0 0
116 -18.40100 8.87031 28.70524 0 0 0
117 -18.81081 9.81786 28.60122 0 0 0
118 -19.54612 10.44268 28.51016 0 0 0
119 -20.27435 11.11877 28.61583 0 0 0
120 -21.10648 11.46922 28.21068 0 0 0
121 -22.04333 11.24124 28.29890 0 0 0
122 -22.80212 11.92183 28.64635 0 0 0
123 -23.60614 12.43782 28.49101 0 0 0
124 -24.48409 12.90007 28.61142 0 0 0
125 -25.41050 13.22399 28.93582 0 0 0
126 -26.08864 12.82046 28.28091 0 0 0
127 -27.00796 12.58169 28.32808 0 0 0
128 -27.68962 12.24412 27.70759 0 0 0
129 -27.38963 11.74857 26.83154 0 0 0
130 -27.88742 11.55496 26.05437 0 0 0
131 -28.28319 10.66913 25.96008 0 0 0
132 -29.09698 10.05998 26.06327 0 0 0
133 -29.93687 9.90237 25.60496 0 0 0
134 -29.88292 9.17852 24.98079 0 0 0
135 -30.51424 8.69141 24.47305 0 0 0
136 -31.09429 8.65941 23.63052 0 0 0
137 -31.92145 9.10701 23.68134 0 0 0
138 -32.75440 8.91989 23.18046 0 0 0
139 -32.76931 8.14685 22.54389 0 0 0
140 -33.72124 7.69550 22.50485 0 0 0
141 -34.28418 6.99853 22.11812 0 0 0
142 -35.01616 6.98408 21.51371 0 0 0
143 -35.89705 6.96908 22.10967 0 0 0
144 -36.61938 6.53439 22.60368 0 0 0
145 -37.41451 5.90686 22.90219 0 0 0
146 -38.06493 5.26486 22.66242 0 0 0
147 -38.15700 5.11101 21.65915 0 0 0
148 -38.45166 4.78695 20.78283 0 0 0
149 -39.04774 4.96136 19.99303 0 0 0
150 -39.61346 4.32057 19.56784 0 0 0
151 -40.60140 4.09718 19.70341 0 0 0
152 -41.59003 3.88984 19.71729 0 0 0
153 -42.12992 3.81669 18.92067 0 0 0
154 -43.00152 3.35848 18.84491 0 0 0
155 -43.89779 3.08764 19.20907 0 0 0
156 -43.66433 2.11172 19.47518 0 0 0
157 -25.15702 14.01317 28.31762 0 0 0
158 -25.54075 14.94587 28.06686 0 0 0
159 -25.19136 15.77037 28.53752 0 0 0
160 -25.18380 16.63304 28.01934 0 0 0
161 -24.69958 17.42999 27.96352 0 0 0
162 -23.85157 17.59610 27.54195 0 0 0
163 -24.32914 18.36479 27.16109 0 0 0
164 -24.36188 19.34878 26.92314 0 0 0
165 -23.73980 19.42701 26.14311 0 0 0
166 -23.28407 20.21832 25.90342 0 0 0
167 -23.63366 21.10045 25.44926 0 0 0
168 -23.62554 21.71604 24.70146 0 0 0
169 -23.61194 22.45979 24.17732 0 0 0
170 -23.14753 23.35525 23.71221 0 0 0
171 -23.07901 24.25352 23.35911 0 0 0
172 -23.01665 24.63284 22.49223 0 0 0
173 -22.95095 25.09661 21.66206 0 0 0
174 -22.26034 25.43750 21.06960 0 0 0
175 -22.46934 26.22932 20.43929 0 0 0
176 -22.17201 27.18430 20.25175 0 0 0
177 -21.48626 27.03831 19.51631 0 0 0
178 -21.33729 28.00683 19.48474 0 0 0
179 -21.30276 28.66091 18.79705 0 0 0
180 -20.64930 28.90365 18.10778 0 0 0
181 -20.70726 29.43507 17.27656 0 0 0
182 -21.30839 30.02463 16.75777 0 0 0
183 -21.80807 30.90272 16.78848 0 0 0
184 -22.63208 31.36403 16.82688 0 0 0
185 -22.51560 32.37995 16.77712 0 0 0
186 -22.97047 32.93689 17.44005 0 0 0
187 -23.68364 33.31878 16.91684 0 0 0
188 -25.93100 13.59268 29.72801 0 0 0
189 -26.73994 13.82153 30.34670 0 0 0
190 -27.09913 14.13605 31.22469 0 0 0
191 -27.76871 14.86796 31.36051 0 0 0
192 -28.16195 15.31530 32.18624 0 0 0
193 -28.39812 15.54718 33.11401 0 0 0
194 -29.10460 15.60357 33.77603 0 0 0
195 -29.49187 15.47660 34.70481 0 0 0
196 -29.84172 15.49501 35.70742 0 0 0
197 -30.37246 15.83985 36.51389 0 0 0
198 -30.57812 15.96417 37.52341 0 0 0
199 -30.88819 16.29221 38.42723 0 0 0
200 -31.25902 16.39182 39.32048 0 0 0
201 -30.89860 16.87773 40.24933 0 0 0
202 -31.03465 17.37768 41.18616 0 0 0
203 -31.77454 17.56167 41.91729 0 0 0
204 -32.13193 18.00047 42.73850 0 0 0
205 -32.65138 18.77765 43.26621 0 0 0
206 -33.42681 19.14870 43.73255 0 0 0
207 -33.36792 19.83768 44.52596 0 0 0
208 -34.00360 20.39842 45.07021 0 0 0
209 -34.69708 20.33729 45.71717 0 0 0
210 -35.59423 20.29154 46.10806 0 0 0
211 -36.36925 20.45564 46.79458 0 0 0
212 -36.74369 19.97181 47.50272 0 0 0
213 -37.13554 20.56957 48.16717 0 0 0
214 -37.42949 20.93420 49.07771 0 0 0
215 -37.96467 20.91006 49.83999 0 0 0
216 -38.41521 21.17840 50.79807 0 0 0
217 -39.03578 21.60613 51.42489 0 0 0
218 -39.60065 21.89272 52.16389 0 0 0
219 -40.55276 22.24670 52.41117 0 0 0
220 -41.53431 22.36362 52.23574 0 0 0
221 -42.42526 22.13193 52.04739 0 0 0
222 -43.37641 22.39059 51.84406 0 0 0
223 -44.37235 22.26267 51.82559 0 0 0
224 -45.26000 22.66773 52.11116 0 0 0
225 -45.96524 22.04733 52.34570 0 0 0
226 -46.77098 21.47310 52.49630 0 0 0
227 -47.31981 20.82186 53.11591 0 0 0
228 -48.02011 20.27210 52.53020 0 0 0
229 -48.91154 20.58482 52.22953 0 0 0
230 -49.76089 20.53841 52.79930 0 0 0
231 -50.25311 19.67763 53.17485 0 0 0
232 -51.18241 19.51255 53.08054 0 0 0
233 -52.15652 19.54000 53.28182 0 0 0
234 -52.65301 19.03691 53.95591 0 0 0
235 -53.28235 18.82821 54.60496 0 0 0
236 -54.21207 18.54686 54.63143 0 0 0
237 -55.29084 18.59482 54.84007 0 0 0
238 -56.22375 18.63781 54.58511 0 0 0
239 -57.02377 18.63913 53.94467 0 0 0
240 -57.45920 19.51772 54.12027 0 0 0
241 -58.42304 19.66712 54.23773 0 0 0
242 -59.27897 19.48252 54.73471 0 0 0
243 -59.41452 18.50852 54.79077 0 0 0
244 -60.48177 18.32801 54.75175 0 0 0
245 -61.23989 17.64533 54.54081 0 0 0
246 -61.82141 16.81089 54.18709 0 0 0
247 -61.50297 16.55535 53.33180 0 0 0
248 -60.83417 16.45106 53.94117 0 0 0
249 -61.12815 16.27101 54.81508 0 0 0
250 -39.20957 22.81346 51.93983 0 0 0
251 -39.25857 23.51046 51.31484 0 0 0
252 -39.55337 24.20567 50.72304 0 0 0
253 -38.68655 24.55409 50.28757 0 0 0
254 -38.17440 25.47800 49.88923 0 0 0
255 -37.51533 26.23297 49.73956 0 0 0
256 -37.45374 27.20989 49.63570 0 0 0
257 -37.83568 28.07130 49.55935 0 0 0
258 -38.00874 29.05440 49.39054 0 0 0
259 -37.35905 29.82294 49.13862 0 0 0
260 -37.58279 30.68317 48.63921 0 0 0
261 -38.35064 31.27294 48.50254 0 0 0
262 -38.67872 31.97866 49.06572 0 0 0
263 -38.59629 33.00479 49.06935 0 0 0
264 -38.81339 33.77264 48.51773 0 0 0
265 -38.38834 34.41717 47.87975 0 0 0
266 -38.77094 35.26252 48.32853 0 0 0
267 -37.99921 35.47004 47.64416 0 0 0
268 -38.17240 35.94956 46.82690 0 0 0
269 -37.82106 36.84029 46.88040 0 0 0
270 -37.30141 37.75523 46.78353 0 0 0
271 -37.29325 38.61072 46.31473 0 0 0
272 -37.88960 39.36883 45.76864 0 0 0
273 -37.60271 40.25286 45.64617 0 0 0
274 -37.45672 41.18246 45.43394 0 0 0
275 -36.75902 41.87541 45.12610 0 0 0
276 -36.64700 42.80841 44.87195 0 0 0
277 -37.53746 43.31721 44.72291 0 0 0
278 -37.22682 44.23012 44.88558 0 0 0
279 -37.86184 44.67078 44.29322 0 0 0
280 -37.65964 44.07678 43.60123 0 0 0
281 -39.11387 22.17054 53.03534 0 0 0
282 -39.23236 22.33192 54.03942 0 0 0
283 -38.86104 22.15389 54.93186 0 0 0
284 -38.59233 22.30604 56.02706 0 0 0
285 -37.93414 22.49871 56.66619 0 0 0
286 -37.10789 22.59516 57.21196 0 0 0
287 -36.26852 22.74393 57.63788 0 0 0
288 -35.52729 22.69121 58.32723 0 0 0
289 -34.70538 22.11164 58.72558 0 0 0
290 -34.02240 22.19304 59.43402 0 0 0
291 -33.99245 22.30367 60.37226 0 0 0
292 -33.05509 22.28491 60.88012 0 0 0
293 -32.64945 22.84464 61.67968 0 0 0
294 -32.01551 22.52125 62.40659 0 0 0
295 -31.76974 22.24315 63.27378 0 0 0
296 -31.34301 21.78022 64.08112 0 0 0
297 -30.60744 21.23245 64.46369 0 0 0
298 -30.02603 20.99452 65.18518 0 0 0