bb401nuc1bl200bn4d30tot800

801 atoms
800 bonds
802 angles

1 atom types
1 bond types
1 angle types

-1000 1000 xlo xhi
-1000 1000 ylo yhi
-1000 1000 zlo zhi

Masses

1 1

Atoms

1	1	1	0.0	0.0	0.0	0	0	0
2	1	1	0.0	0.0	1.0	0	0	0
3	1	1	0.0	-0.49999999999999994	1.8660254037844388	0	0	0
4	1	1	0.0	0.0	2.7320508075688776	0	0	0
5	1	1	0.0	-0.49999999999999994	3.5980762113533165	0	0	0
6	1	1	0.0	0.0	4.464101615137755	0	0	0
7	1	1	0.0	-0.49999999999999994	5.330127018922194	0	0	0
8	1	1	0.0	0.0	6.196152422706632	0	0	0
9	1	1	0.0	-0.49999999999999994	7.06217782649107	0	0	0
10	1	1	0.0	0.0	7.928203230275509	0	0	0
11	1	1	0.0	-0.49999999999999994	8.794228634059948	0	0	0
12	1	1	0.0	0.0	9.660254037844387	0	0	0
13	1	1	0.0	-0.49999999999999994	10.526279441628827	0	0	0
14	1	1	0.0	0.0	11.392304845413266	0	0	0
15	1	1	0.0	-0.49999999999999994	12.258330249197705	0	0	0
16	1	1	0.0	0.0	13.124355652982144	0	0	0
17	1	1	0.0	-0.49999999999999994	13.990381056766584	0	0	0
18	1	1	0.0	0.0	14.856406460551023	0	0	0
19	1	1	0.0	-0.49999999999999994	15.722431864335462	0	0	0
20	1	1	0.0	0.0	16.5884572681199	0	0	0
21	1	1	0.0	-0.49999999999999994	17.454482671904337	0	0	0
22	1	1	0.0	0.0	18.320508075688775	0	0	0
23	1	1	0.0	-0.49999999999999994	19.186533479473212	0	0	0
24	1	1	0.0	0.0	20.05255888325765	0	0	0
25	1	1	0.0	-0.49999999999999994	20.918584287042087	0	0	0
26	1	1	0.0	0.0	21.784609690826525	0	0	0
27	1	1	0.0	-0.49999999999999994	22.650635094610962	0	0	0
28	1	1	0.0	0.0	23.5166604983954	0	0	0
29	1	1	0.0	-0.49999999999999994	24.382685902179837	0	0	0
30	1	1	0.0	0.0	25.248711305964274	0	0	0
31	1	1	0.0	-0.49999999999999994	26.114736709748712	0	0	0
32	1	1	0.0	0.0	26.98076211353315	0	0	0
33	1	1	0.0	-0.49999999999999994	27.846787517317587	0	0	0
34	1	1	0.0	0.0	28.712812921102024	0	0	0
35	1	1	0.0	-0.49999999999999994	29.578838324886462	0	0	0
36	1	1	0.0	0.0	30.4448637286709	0	0	0
37	1	1	0.0	-0.49999999999999994	31.310889132455337	0	0	0
38	1	1	0.0	0.0	32.17691453623978	0	0	0
39	1	1	0.0	-0.49999999999999994	33.04293994002422	0	0	0
40	1	1	0.0	0.0	33.90896534380866	0	0	0
41	1	1	0.0	-0.49999999999999994	34.7749907475931	0	0	0
42	1	1	0.0	0.0	35.64101615137754	0	0	0
43	1	1	0.0	-0.49999999999999994	36.50704155516198	0	0	0
44	1	1	0.0	0.0	37.373066958946424	0	0	0
45	1	1	0.0	-0.49999999999999994	38.239092362730865	0	0	0
46	1	1	0.0	0.0	39.105117766515306	0	0	0
47	1	1	0.0	-0.49999999999999994	39.97114317029975	0	0	0
48	1	1	0.0	0.0	40.83716857408419	0	0	0
49	1	1	0.0	-0.49999999999999994	41.70319397786863	0	0	0
50	1	1	0.0	0.0	42.56921938165307	0	0	0
51	1	1	0.0	-0.49999999999999994	43.43524478543751	0	0	0
52	1	1	0.0	0.0	44.30127018922195	0	0	0
53	1	1	0.0	-0.49999999999999994	45.16729559300639	0	0	0
54	1	1	0.0	0.0	46.033320996790835	0	0	0
55	1	1	0.0	-0.49999999999999994	46.899346400575276	0	0	0
56	1	1	0.0	0.0	47.76537180435972	0	0	0
57	1	1	0.0	-0.49999999999999994	48.63139720814416	0	0	0
58	1	1	0.0	0.0	49.4974226119286	0	0	0
59	1	1	0.0	-0.49999999999999994	50.36344801571304	0	0	0
60	1	1	0.0	0.0	51.22947341949748	0	0	0
61	1	1	0.0	-0.49999999999999994	52.09549882328192	0	0	0
62	1	1	0.0	0.0	52.96152422706636	0	0	0
63	1	1	0.0	-0.49999999999999994	53.827549630850804	0	0	0
64	1	1	0.0	0.0	54.693575034635245	0	0	0
65	1	1	0.0	-0.49999999999999994	55.559600438419686	0	0	0
66	1	1	0.0	0.0	56.42562584220413	0	0	0
67	1	1	0.0	-0.49999999999999994	57.29165124598857	0	0	0
68	1	1	0.0	0.0	58.15767664977301	0	0	0
69	1	1	0.0	-0.49999999999999994	59.02370205355745	0	0	0
70	1	1	0.0	0.0	59.88972745734189	0	0	0
71	1	1	0.0	-0.49999999999999994	60.75575286112633	0	0	0
72	1	1	0.0	0.0	61.62177826491077	0	0	0
73	1	1	0.0	-0.49999999999999994	62.487803668695214	0	0	0
74	1	1	0.0	0.0	63.353829072479655	0	0	0
75	1	1	0.0	-0.49999999999999994	64.21985447626409	0	0	0
76	1	1	0.0	0.0	65.08587988004852	0	0	0
77	1	1	0.0	-0.49999999999999994	65.95190528383296	0	0	0
78	1	1	0.0	0.0	66.81793068761739	0	0	0
79	1	1	0.0	-0.49999999999999994	67.68395609140183	0	0	0
80	1	1	0.0	0.0	68.54998149518626	0	0	0
81	1	1	0.0	-0.49999999999999994	69.41600689897069	0	0	0
82	1	1	0.0	0.0	70.28203230275513	0	0	0
83	1	1	0.0	-0.49999999999999994	71.14805770653956	0	0	0
84	1	1	0.0	0.0	72.014083110324	0	0	0
85	1	1	0.0	-0.49999999999999994	72.88010851410843	0	0	0
86	1	1	0.0	0.0	73.74613391789286	0	0	0
87	1	1	0.0	-0.49999999999999994	74.6121593216773	0	0	0
88	1	1	0.0	0.0	75.47818472546173	0	0	0
89	1	1	0.0	-0.49999999999999994	76.34421012924616	0	0	0
90	1	1	0.0	0.0	77.2102355330306	0	0	0
91	1	1	0.0	-0.49999999999999994	78.07626093681503	0	0	0
92	1	1	0.0	0.0	78.94228634059947	0	0	0
93	1	1	0.0	-0.49999999999999994	79.8083117443839	0	0	0
94	1	1	0.0	0.0	80.67433714816833	0	0	0
95	1	1	0.0	-0.49999999999999994	81.54036255195277	0	0	0
96	1	1	0.0	0.0	82.4063879557372	0	0	0
97	1	1	0.0	-0.49999999999999994	83.27241335952164	0	0	0
98	1	1	0.0	0.0	84.13843876330607	0	0	0
99	1	1	0.0	-0.49999999999999994	85.0044641670905	0	0	0
100	1	1	0.0	0.0	85.87048957087494	0	0	0
101	1	1	0.0	-0.49999999999999994	86.73651497465937	0	0	0
102	1	1	0.0	0.0	87.6025403784438	0	0	0
103	1	1	0.0	-0.49999999999999994	88.46856578222824	0	0	0
104	1	1	0.0	0.0	89.33459118601267	0	0	0
105	1	1	0.0	-0.49999999999999994	90.20061658979711	0	0	0
106	1	1	0.0	0.0	91.06664199358154	0	0	0
107	1	1	0.0	-0.49999999999999994	91.93266739736598	0	0	0
108	1	1	0.0	0.0	92.79869280115041	0	0	0
109	1	1	0.0	-0.49999999999999994	93.66471820493484	0	0	0
110	1	1	0.0	0.0	94.53074360871928	0	0	0
111	1	1	0.0	-0.49999999999999994	95.39676901250371	0	0	0
112	1	1	0.0	0.0	96.26279441628814	0	0	0
113	1	1	0.0	-0.49999999999999994	97.12881982007258	0	0	0
114	1	1	0.0	0.0	97.99484522385701	0	0	0
115	1	1	0.0	-0.49999999999999994	98.86087062764145	0	0	0
116	1	1	0.0	0.0	99.72689603142588	0	0	0
117	1	1	0.0	-0.49999999999999994	100.59292143521031	0	0	0
118	1	1	0.0	0.0	101.45894683899475	0	0	0
119	1	1	0.0	-0.49999999999999994	102.32497224277918	0	0	0
120	1	1	0.0	0.0	103.19099764656362	0	0	0
121	1	1	0.0	-0.49999999999999994	104.05702305034805	0	0	0
122	1	1	0.0	0.0	104.92304845413248	0	0	0
123	1	1	0.0	-0.49999999999999994	105.78907385791692	0	0	0
124	1	1	0.0	0.0	106.65509926170135	0	0	0
125	1	1	0.0	-0.49999999999999994	107.52112466548579	0	0	0
126	1	1	0.0	0.0	108.38715006927022	0	0	0
127	1	1	0.0	-0.49999999999999994	109.25317547305465	0	0	0
128	1	1	0.0	0.0	110.11920087683909	0	0	0
129	1	1	0.0	-0.49999999999999994	110.98522628062352	0	0	0
130	1	1	0.0	0.0	111.85125168440796	0	0	0
131	1	1	0.0	-0.49999999999999994	112.71727708819239	0	0	0
132	1	1	0.0	0.0	113.58330249197682	0	0	0
133	1	1	0.0	-0.49999999999999994	114.44932789576126	0	0	0
134	1	1	0.0	0.0	115.31535329954569	0	0	0
135	1	1	0.0	-0.49999999999999994	116.18137870333013	0	0	0
136	1	1	0.0	0.0	117.04740410711456	0	0	0
137	1	1	0.0	-0.49999999999999994	117.913429510899	0	0	0
138	1	1	0.0	0.0	118.77945491468343	0	0	0
139	1	1	0.0	-0.49999999999999994	119.64548031846786	0	0	0
140	1	1	0.0	0.0	120.5115057222523	0	0	0
141	1	1	0.0	-0.49999999999999994	121.37753112603673	0	0	0
142	1	1	0.0	0.0	122.24355652982116	0	0	0
143	1	1	0.0	-0.49999999999999994	123.1095819336056	0	0	0
144	1	1	0.0	0.0	123.97560733739003	0	0	0
145	1	1	0.0	-0.49999999999999994	124.84163274117446	0	0	0
146	1	1	0.0	0.0	125.7076581449589	0	0	0
147	1	1	0.0	-0.49999999999999994	126.57368354874333	0	0	0
148	1	1	0.0	0.0	127.43970895252777	0	0	0
149	1	1	0.0	-0.49999999999999994	128.3057343563122	0	0	0
150	1	1	0.0	0.0	129.17175976009665	0	0	0
151	1	1	0.0	-0.49999999999999994	130.0377851638811	0	0	0
152	1	1	0.0	0.0	130.90381056766554	0	0	0
153	1	1	0.0	-0.49999999999999994	131.76983597145	0	0	0
154	1	1	0.0	0.0	132.63586137523444	0	0	0
155	1	1	0.0	-0.49999999999999994	133.5018867790189	0	0	0
156	1	1	0.0	0.0	134.36791218280334	0	0	0
157	1	1	0.0	-0.49999999999999994	135.23393758658779	0	0	0
158	1	1	0.0	0.0	136.09996299037223	0	0	0
159	1	1	0.0	-0.49999999999999994	136.96598839415668	0	0	0
160	1	1	0.0	0.0	137.83201379794113	0	0	0
161	1	1	0.0	-0.49999999999999994	138.69803920172558	0	0	0
162	1	1	0.0	0.0	139.56406460551003	0	0	0
163	1	1	0.0	-0.49999999999999994	140.43009000929447	0	0	0
164	1	1	0.0	0.0	141.29611541307892	0	0	0
165	1	1	0.0	-0.49999999999999994	142.16214081686337	0	0	0
166	1	1	0.0	0.0	143.02816622064782	0	0	0
167	1	1	0.0	-0.49999999999999994	143.89419162443227	0	0	0
168	1	1	0.0	0.0	144.76021702821672	0	0	0
169	1	1	0.0	-0.49999999999999994	145.62624243200116	0	0	0
170	1	1	0.0	0.0	146.4922678357856	0	0	0
171	1	1	0.0	-0.49999999999999994	147.35829323957006	0	0	0
172	1	1	0.0	0.0	148.2243186433545	0	0	0
173	1	1	0.0	-0.49999999999999994	149.09034404713896	0	0	0
174	1	1	0.0	0.0	149.9563694509234	0	0	0
175	1	1	0.0	-0.49999999999999994	150.82239485470785	0	0	0
176	1	1	0.0	0.0	151.6884202584923	0	0	0
177	1	1	0.0	-0.49999999999999994	152.55444566227675	0	0	0
178	1	1	0.0	0.0	153.4204710660612	0	0	0
179	1	1	0.0	-0.49999999999999994	154.28649646984564	0	0	0
180	1	1	0.0	0.0	155.1525218736301	0	0	0
181	1	1	0.0	-0.49999999999999994	156.01854727741454	0	0	0
182	1	1	0.0	0.0	156.884572681199	0	0	0
183	1	1	0.0	-0.49999999999999994	157.75059808498344	0	0	0
184	1	1	0.0	0.0	158.61662348876789	0	0	0
185	1	1	0.0	-0.49999999999999994	159.48264889255233	0	0	0
186	1	1	0.0	0.0	160.34867429633678	0	0	0
187	1	1	0.0	-0.49999999999999994	161.21469970012123	0	0	0
188	1	1	0.0	0.0	162.08072510390568	0	0	0
189	1	1	0.0	-0.49999999999999994	162.94675050769013	0	0	0
190	1	1	0.0	0.0	163.81277591147457	0	0	0
191	1	1	0.0	-0.49999999999999994	164.67880131525902	0	0	0
192	1	1	0.0	0.0	165.54482671904347	0	0	0
193	1	1	0.0	-0.49999999999999994	166.41085212282792	0	0	0
194	1	1	0.0	0.0	167.27687752661237	0	0	0
195	1	1	0.0	-0.49999999999999994	168.14290293039682	0	0	0
196	1	1	0.0	0.0	169.00892833418126	0	0	0
197	1	1	0.0	-0.49999999999999994	169.8749537379657	0	0	0
198	1	1	0.0	0.0	170.74097914175016	0	0	0
199	1	1	0.0	-0.49999999999999994	171.6070045455346	0	0	0
200	1	1	0.0	0.0	172.47302994931906	0	0	0
201	1	1	0.0	-0.49999999999999994	173.3390553531035	0	0	0
202	1	1	0.33722509850044696	-1.4292282686798672	173.18801212211451	0	0	0
203	1	1	0.6744501970008911	-2.1584419397767576	172.59259071266843	0	0	0
204	1	1	1.0116752955013353	-3.0386988418626477	172.9263975719022	0	0	0
205	1	1	1.3489003940017796	-3.7679125129595383	172.33097616245612	0	0	0
206	1	1	1.6861254925022238	-4.6481694150454285	172.6647830216899	0	0	0
207	1	1	2.023350591002668	-5.377383086142319	172.06936161224382	0	0	0
208	1	1	2.3605756895031123	-6.25763998822821	172.4031684714776	0	0	0
209	1	1	2.6978007880035566	-6.9868536593251	171.80774706203152	0	0	0
210	1	1	3.035025886504001	-7.867110561410991	172.1415539212653	0	0	0
211	1	1	3.3722509850044453	-8.596324232507882	171.54613251181922	0	0	0
212	1	1	3.7094760835048897	-9.476581134593772	171.879939371053	0	0	0
213	1	1	4.046701182005334	-10.205794805690662	171.28451796160692	0	0	0
214	1	1	4.383926280505778	-11.086051707776551	171.6183248208407	0	0	0
215	1	1	4.721151379006223	-11.815265378873441	171.02290341139462	0	0	0
216	1	1	5.058376477506667	-12.69552228095933	171.3567102706284	0	0	0
217	1	1	5.395601576007111	-13.42473595205622	170.76128886118232	0	0	0
218	1	1	5.732826674507556	-14.30499285414211	171.0950957204161	0	0	0
219	1	1	6.070051773008	-15.034206525239	170.49967431097002	0	0	0
220	1	1	6.4072768715084445	-15.91446342732489	170.8334811702038	0	0	0
221	1	1	6.744501970008889	-16.64367709842178	170.23805976075772	0	0	0
222	1	1	7.081727068509333	-17.52393400050767	170.5718666199915	0	0	0
223	1	1	7.4189521670097776	-18.25314767160456	169.97644521054542	0	0	0
224	1	1	7.756177265510222	-19.13340457369045	170.3102520697792	0	0	0
225	1	1	8.093402364010666	-19.86261824478734	169.71483066033312	0	0	0
226	1	1	8.43062746251111	-20.742875146873228	170.0486375195669	0	0	0
227	1	1	8.767852561011553	-21.472088817970118	169.45321611012082	0	0	0
228	1	1	9.105077659511997	-22.352345720056007	169.7870229693546	0	0	0
229	1	1	9.44230275801244	-23.081559391152897	169.19160155990852	0	0	0
230	1	1	9.779527856512884	-23.961816293238787	169.5254084191423	0	0	0
231	1	1	10.116752955013327	-24.691029964335677	168.92998700969622	0	0	0
232	1	1	10.45397805351377	-25.571286866421566	169.26379386893	0	0	0
233	1	1	10.791203152014214	-26.300500537518456	168.66837245948392	0	0	0
234	1	1	11.128428250514657	-27.180757439604346	169.0021793187177	0	0	0
235	1	1	11.465653349015101	-27.909971110701235	168.40675790927162	0	0	0
236	1	1	11.802878447515544	-28.790228012787125	168.7405647685054	0	0	0
237	1	1	12.140103546015988	-29.519441683884015	168.14514335905932	0	0	0
238	1	1	12.477328644516431	-30.399698585969904	168.4789502182931	0	0	0
239	1	1	12.814553743016875	-31.128912257066794	167.88352880884702	0	0	0
240	1	1	13.151778841517318	-32.009169159152684	168.2173356680808	0	0	0
241	1	1	13.489003940017762	-32.73838283024958	167.62191425863472	0	0	0
242	1	1	13.826229038518205	-33.61863973233547	167.9557211178685	0	0	0
243	1	1	14.163454137018649	-34.34785340343236	167.36029970842242	0	0	0
244	1	1	14.500679235519092	-35.22811030551825	167.6941065676562	0	0	0
245	1	1	14.837904334019536	-35.95732397661514	167.09868515821012	0	0	0
246	1	1	15.175129432519979	-36.83758087870103	167.4324920174439	0	0	0
247	1	1	15.512354531020422	-37.566794549797926	166.83707060799782	0	0	0
248	1	1	15.849579629520866	-38.447051451883816	167.1708774672316	0	0	0
249	1	1	16.18680472802131	-39.17626512298071	166.57545605778552	0	0	0
250	1	1	16.524029826521755	-40.0565220250666	166.9092629170193	0	0	0
251	1	1	16.861254925022198	-40.78573569616349	166.31384150757322	0	0	0
252	1	1	17.19848002352264	-41.66599259824938	166.647648366807	0	0	0
253	1	1	17.535705122023085	-42.395206269346275	166.05222695736092	0	0	0
254	1	1	17.87293022052353	-43.275463171432165	166.3860338165947	0	0	0
255	1	1	18.210155319023972	-44.00467684252906	165.79061240714861	0	0	0
256	1	1	18.547380417524415	-44.88493374461495	166.1244192663824	0	0	0
257	1	1	18.88460551602486	-45.61414741571184	165.52899785693631	0	0	0
258	1	1	19.221830614525302	-46.49440431779773	165.8628047161701	0	0	0
259	1	1	19.559055713025746	-47.223617988894624	165.267383306724	0	0	0
260	1	1	19.89628081152619	-48.103874890980514	165.6011901659578	0	0	0
261	1	1	20.233505910026633	-48.83308856207741	165.0057687565117	0	0	0
262	1	1	20.570731008527076	-49.7133454641633	165.3395756157455	0	0	0
263	1	1	20.90795610702752	-50.44255913526019	164.7441542062994	0	0	0
264	1	1	21.245181205527963	-51.32281603734608	165.0779610655332	0	0	0
265	1	1	21.582406304028407	-52.05202970844297	164.4825396560871	0	0	0
266	1	1	21.91963140252885	-52.93228661052886	164.8163465153209	0	0	0
267	1	1	22.256856501029294	-53.661500281625756	164.2209251058748	0	0	0
268	1	1	22.594081599529737	-54.541757183711645	164.5547319651086	0	0	0
269	1	1	22.93130669803018	-55.27097085480854	163.9593105556625	0	0	0
270	1	1	23.268531796530624	-56.15122775689443	164.2931174148963	0	0	0
271	1	1	23.605756895031067	-56.88044142799132	163.6976960054502	0	0	0
272	1	1	23.94298199353151	-57.76069833007721	164.031502864684	0	0	0
273	1	1	24.280207092031954	-58.489912001174105	163.4360814552379	0	0	0
274	1	1	24.617432190532398	-59.370168903259994	163.7698883144717	0	0	0
275	1	1	24.95465728903284	-60.09938257435689	163.1744669050256	0	0	0
276	1	1	25.291882387533285	-60.97963947644278	163.5082737642594	0	0	0
277	1	1	25.62910748603373	-61.70885314753967	162.9128523548133	0	0	0
278	1	1	25.96633258453417	-62.58911004962556	163.2466592140471	0	0	0
279	1	1	26.303557683034615	-63.318323720722454	162.651237804601	0	0	0
280	1	1	26.64078278153506	-64.19858062280835	162.9850446638348	0	0	0
281	1	1	26.978007880035502	-64.92779429390524	162.3896232543887	0	0	0
282	1	1	27.315232978535946	-65.80805119599113	162.7234301136225	0	0	0
283	1	1	27.65245807703639	-66.53726486708801	162.1280087041764	0	0	0
284	1	1	27.989683175536832	-67.4175217691739	162.4618155634102	0	0	0
285	1	1	28.326908274037276	-68.14673544027079	161.8663941539641	0	0	0
286	1	1	28.66413337253772	-69.02699234235668	162.2002010131979	0	0	0
287	1	1	29.001358471038163	-69.75620601345356	161.6047796037518	0	0	0
288	1	1	29.338583569538606	-70.63646291553945	161.9385864629856	0	0	0
289	1	1	29.67580866803905	-71.36567658663634	161.3431650535395	0	0	0
290	1	1	30.013033766539493	-72.24593348872223	161.6769719127733	0	0	0
291	1	1	30.350258865039937	-72.97514715981912	161.0815505033272	0	0	0
292	1	1	30.68748396354038	-73.855404061905	161.415357362561	0	0	0
293	1	1	31.024709062040824	-74.58461773300189	160.8199359531149	0	0	0
294	1	1	31.361934160541267	-75.46487463508778	161.1537428123487	0	0	0
295	1	1	31.69915925904171	-76.19408830618467	160.5583214029026	0	0	0
296	1	1	32.036384357542154	-77.07434520827056	160.8921282621364	0	0	0
297	1	1	32.3736094560426	-77.80355887936744	160.2967068526903	0	0	0
298	1	1	32.71083455454305	-78.68381578145333	160.6305137119241	0	0	0
299	1	1	33.048059653043495	-79.41302945255022	160.035092302478	0	0	0
300	1	1	33.38528475154394	-80.29328635463611	160.3688991617118	0	0	0
301	1	1	33.72250985004439	-81.022500025733	159.7734777522657	0	0	0
302	1	1	34.059734948544836	-81.90275692781888	160.1072846114995	0	0	0
303	1	1	34.39696004704528	-82.63197059891577	159.5118632020534	0	0	0
304	1	1	34.73418514554573	-83.51222750100166	159.8456700612872	0	0	0
305	1	1	35.07141024404618	-84.24144117209855	159.2502486518411	0	0	0
306	1	1	35.408635342546624	-85.12169807418444	159.5840555110749	0	0	0
307	1	1	35.74586044104707	-85.85091174528132	158.9886341016288	0	0	0
308	1	1	36.08308553954752	-86.73116864736721	159.3224409608626	0	0	0
309	1	1	36.420310638047965	-87.4603823184641	158.7270195514165	0	0	0
310	1	1	36.75753573654841	-88.34063922054999	159.0608264106503	0	0	0
311	1	1	37.09476083504886	-89.06985289164687	158.4654050012042	0	0	0
312	1	1	37.431985933549306	-89.95010979373276	158.799211860438	0	0	0
313	1	1	37.76921103204975	-90.67932346482965	158.2037904509919	0	0	0
314	1	1	38.1064361305502	-91.55958036691554	158.5375973102257	0	0	0
315	1	1	38.44366122905065	-92.28879403801243	157.9421759007796	0	0	0
316	1	1	38.780886327551094	-93.16905094009832	158.2759827600134	0	0	0
317	1	1	39.11811142605154	-93.8982646111952	157.6805613505673	0	0	0
318	1	1	39.45533652455199	-94.77852151328109	158.0143682098011	0	0	0
319	1	1	39.792561623052435	-95.50773518437798	157.418946800355	0	0	0
320	1	1	40.12978672155288	-96.38799208646387	157.7527536595888	0	0	0
321	1	1	40.46701182005333	-97.11720575756075	157.1573322501427	0	0	0
322	1	1	40.80423691855378	-97.99746265964664	157.4911391093765	0	0	0
323	1	1	41.141462017054224	-98.72667633074353	156.8957176999304	0	0	0
324	1	1	41.47868711555467	-99.60693323282942	157.2295245591642	0	0	0
325	1	1	41.81591221405512	-100.3361469039263	156.6341031497181	0	0	0
326	1	1	42.153137312555565	-101.2164038060122	156.9679100089519	0	0	0
327	1	1	42.49036241105601	-101.94561747710908	156.3724885995058	0	0	0
328	1	1	42.82758750955646	-102.82587437919497	156.7062954587396	0	0	0
329	1	1	43.164812608056906	-103.55508805029186	156.1108740492935	0	0	0
330	1	1	43.50203770655735	-104.43534495237775	156.4446809085273	0	0	0
331	1	1	43.8392628050578	-105.16455862347463	155.8492594990812	0	0	0
332	1	1	44.17648790355825	-106.04481552556052	156.183066358315	0	0	0
333	1	1	44.513713002058694	-106.77402919665741	155.5876449488689	0	0	0
334	1	1	44.85093810055914	-107.6542860987433	155.9214518081027	0	0	0
335	1	1	45.18816319905959	-108.38349976984018	155.3260303986566	0	0	0
336	1	1	45.525388297560035	-109.26375667192607	155.6598372578904	0	0	0
337	1	1	45.86261339606048	-109.99297034302296	155.0644158484443	0	0	0
338	1	1	46.19983849456093	-110.87322724510885	155.3982227076781	0	0	0
339	1	1	46.537063593061376	-111.60244091620574	154.802801298232	0	0	0
340	1	1	46.87428869156182	-112.48269781829163	155.1366081574658	0	0	0
341	1	1	47.21151379006227	-113.21191148938851	154.5411867480197	0	0	0
342	1	1	47.54873888856272	-114.0921683914744	154.8749936072535	0	0	0
343	1	1	47.885963987063164	-114.82138206257129	154.2795721978074	0	0	0
344	1	1	48.22318908556361	-115.70163896465718	154.6133790570412	0	0	0
345	1	1	48.56041418406406	-116.43085263575406	154.0179576475951	0	0	0
346	1	1	48.897639282564505	-117.31110953783995	154.35176450682889	0	0	0
347	1	1	49.23486438106495	-118.04032320893684	153.7563430973828	0	0	0
348	1	1	49.5720894795654	-118.92058011102273	154.09014995661659	0	0	0
349	1	1	49.909314578065846	-119.64979378211962	153.4947285471705	0	0	0
350	1	1	50.24653967656629	-120.5300506842055	153.82853540640428	0	0	0
351	1	1	50.58376477506674	-121.25926435530239	153.2331139969582	0	0	0
352	1	1	50.92098987356719	-122.13952125738828	153.56692085619198	0	0	0
353	1	1	51.258214972067634	-122.86873492848517	152.9714994467459	0	0	0
354	1	1	51.59544007056808	-123.74899183057106	153.30530630597968	0	0	0
355	1	1	51.93266516906853	-124.47820550166794	152.7098848965336	0	0	0
356	1	1	52.269890267568975	-125.35846240375383	153.04369175576738	0	0	0
357	1	1	52.60711536606942	-126.08767607485072	152.4482703463213	0	0	0
358	1	1	52.94434046456987	-126.96793297693661	152.78207720555508	0	0	0
359	1	1	53.281565563070316	-127.6971466480335	152.186655796109	0	0	0
360	1	1	53.61879066157076	-128.57740355011939	152.52046265534278	0	0	0
361	1	1	53.95601576007121	-129.30661722121627	151.9250412458967	0	0	0
362	1	1	54.29324085857166	-130.18687412330218	152.25884810513048	0	0	0
363	1	1	54.630465957072104	-130.91608779439906	151.6634266956844	0	0	0
364	1	1	54.96769105557255	-131.79634469648497	151.99723355491818	0	0	0
365	1	1	55.304916154073	-132.52555836758185	151.4018121454721	0	0	0
366	1	1	55.642141252573445	-133.40581526966776	151.73561900470588	0	0	0
367	1	1	55.97936635107389	-134.13502894076464	151.1401975952598	0	0	0
368	1	1	56.31659144957434	-135.01528584285055	151.47400445449358	0	0	0
369	1	1	56.653816548074786	-135.74449951394743	150.8785830450475	0	0	0
370	1	1	56.99104164657523	-136.62475641603334	151.21238990428128	0	0	0
371	1	1	57.32826674507568	-137.35397008713022	150.6169684948352	0	0	0
372	1	1	57.66549184357613	-138.23422698921613	150.95077535406898	0	0	0
373	1	1	58.002716942076574	-138.963440660313	150.3553539446229	0	0	0
374	1	1	58.33994204057702	-139.84369756239892	150.68916080385668	0	0	0
375	1	1	58.67716713907747	-140.5729112334958	150.0937393944106	0	0	0
376	1	1	59.014392237577916	-141.4531681355817	150.42754625364438	0	0	0
377	1	1	59.35161733607836	-142.1823818066786	149.8321248441983	0	0	0
378	1	1	59.68884243457881	-143.0626387087645	150.16593170343208	0	0	0
379	1	1	60.02606753307926	-143.79185237986138	149.570510293986	0	0	0
380	1	1	60.363292631579704	-144.6721092819473	149.90431715321978	0	0	0
381	1	1	60.70051773008015	-145.40132295304417	149.3088957437737	0	0	0
382	1	1	61.0377428285806	-146.28157985513008	149.64270260300748	0	0	0
383	1	1	61.374967927081045	-147.01079352622696	149.0472811935614	0	0	0
384	1	1	61.71219302558149	-147.89105042831287	149.38108805279518	0	0	0
385	1	1	62.04941812408194	-148.62026409940975	148.7856666433491	0	0	0
386	1	1	62.386643222582386	-149.50052100149566	149.11947350258288	0	0	0
387	1	1	62.72386832108283	-150.22973467259254	148.5240520931368	0	0	0
388	1	1	63.06109341958328	-151.10999157467845	148.85785895237058	0	0	0
389	1	1	63.39831851808373	-151.83920524577533	148.2624375429245	0	0	0
390	1	1	63.735543616584174	-152.71946214786124	148.59624440215828	0	0	0
391	1	1	64.07276871508462	-153.44867581895812	148.0008229927122	0	0	0
392	1	1	64.40999381358506	-154.32893272104403	148.33462985194598	0	0	0
393	1	1	64.7472189120855	-155.0581463921409	147.7392084424999	0	0	0
394	1	1	65.08444401058594	-155.93840329422682	148.07301530173368	0	0	0
395	1	1	65.42166910908638	-156.6676169653237	147.4775938922876	0	0	0
396	1	1	65.75889420758682	-157.5478738674096	147.81140075152138	0	0	0
397	1	1	66.09611930608726	-158.2770875385065	147.2159793420753	0	0	0
398	1	1	66.4333444045877	-159.1573444405924	147.54978620130908	0	0	0
399	1	1	66.77056950308814	-159.88655811168928	146.954364791863	0	0	0
400	1	1	67.10779460158858	-160.7668150137752	147.28817165109677	0	0	0
401	1	1	67.44501970008902	-161.49602868487207	146.69275024165069	0	0	0
402	1	1	-0.9309373883132005	-0.5386598339607167	173.7021820476314	0	0	0
403	1	1	-1.8618747766263937	-0.7537035795407233	173.99732907290445	0	0	0
404	1	1	-2.792812164939587	-0.6056206305928543	174.3311359321382	0	0	0
405	1	1	-3.7237495532527802	-0.8206643761728609	174.62628295741126	0	0	0
406	1	1	-4.6546869415659735	-0.6725814272249919	174.96008981664502	0	0	0
407	1	1	-5.585624329879167	-0.8876251728049985	175.25523684191808	0	0	0
408	1	1	-6.51656171819236	-0.7395422238571295	175.58904370115184	0	0	0
409	1	1	-7.447499106505553	-0.9545859694371361	175.8841907264249	0	0	0
410	1	1	-8.378436494818747	-0.8065030204892671	176.21799758565865	0	0	0
411	1	1	-9.30937388313194	-1.0215467660692736	176.5131446109317	0	0	0
412	1	1	-10.240311271445133	-0.8734638171214046	176.84695147016546	0	0	0
413	1	1	-11.171248659758326	-1.0885075627014111	177.14209849543852	0	0	0
414	1	1	-12.10218604807152	-0.9404246137535421	177.47590535467228	0	0	0
415	1	1	-13.033123436384713	-1.1554683593335486	177.77105237994533	0	0	0
416	1	1	-13.964060824697906	-1.0073854103856796	178.1048592391791	0	0	0
417	1	1	-14.8949982130111	-1.2224291559656861	178.40000626445214	0	0	0
418	1	1	-15.825935601324293	-1.0743462070178171	178.7338131236859	0	0	0
419	1	1	-16.756872989637486	-1.2893899525978236	179.02896014895896	0	0	0
420	1	1	-17.68781037795068	-1.1413070036499546	179.36276700819272	0	0	0
421	1	1	-18.618747766263873	-1.3563507492299611	179.65791403346577	0	0	0
422	1	1	-19.549685154577066	-1.2082678002820921	179.99172089269953	0	0	0
423	1	1	-20.48062254289026	-1.4233115458620986	180.2868679179726	0	0	0
424	1	1	-21.411559931203453	-1.2752285969142296	180.62067477720635	0	0	0
425	1	1	-22.342497319516646	-1.4902723424942361	180.9158218024794	0	0	0
426	1	1	-23.27343470782984	-1.3421893935463671	181.24962866171316	0	0	0
427	1	1	-24.204372096143032	-1.5572331391263736	181.5447756869862	0	0	0
428	1	1	-25.135309484456226	-1.4091501901785046	181.87858254621997	0	0	0
429	1	1	-26.06624687276942	-1.6241939357585111	182.17372957149303	0	0	0
430	1	1	-26.997184261082612	-1.4761109868106421	182.5075364307268	0	0	0
431	1	1	-27.928121649395806	-1.6911547323906486	182.80268345599984	0	0	0
432	1	1	-28.859059037709	-1.5430717834427796	183.1364903152336	0	0	0
433	1	1	-29.789996426022192	-1.7581155290227861	183.43163734050665	0	0	0
434	1	1	-30.720933814335385	-1.6100325800749171	183.76544419974041	0	0	0
435	1	1	-31.65187120264858	-1.8250763256549236	184.06059122501347	0	0	0
436	1	1	-32.58280859096177	-1.6769933767070546	184.39439808424723	0	0	0
437	1	1	-33.51374597927496	-1.8920371222870611	184.68954510952028	0	0	0
438	1	1	-34.44468336758815	-1.7439541733391921	185.02335196875404	0	0	0
439	1	1	-35.37562075590134	-1.9589979189191986	185.3184989940271	0	0	0
440	1	1	-36.30655814421453	-1.8109149699713296	185.65230585326086	0	0	0
441	1	1	-37.23749553252772	-2.025958715551336	185.9474528785339	0	0	0
442	1	1	-38.16843292084091	-1.8778757666034671	186.28125973776767	0	0	0
443	1	1	-39.0993703091541	-2.0929195121834736	186.57640676304072	0	0	0
444	1	1	-40.030307697467286	-1.9448365632356046	186.91021362227448	0	0	0
445	1	1	-40.961245085780476	-2.159880308815611	187.20536064754754	0	0	0
446	1	1	-41.892182474093666	-2.0117973598677423	187.5391675067813	0	0	0
447	1	1	-42.823119862406855	-2.226841105447749	187.83431453205435	0	0	0
448	1	1	-43.754057250720045	-2.0787581564998803	188.1681213912881	0	0	0
449	1	1	-44.684994639033235	-2.293801902079887	188.46326841656116	0	0	0
450	1	1	-45.615932027346425	-2.145718953132018	188.79707527579492	0	0	0
451	1	1	-46.546869415659614	-2.360762698712025	189.09222230106798	0	0	0
452	1	1	-47.477806803972804	-2.212679749764156	189.42602916030174	0	0	0
453	1	1	-48.408744192285994	-2.427723495344163	189.7211761855748	0	0	0
454	1	1	-49.33968158059918	-2.279640546396294	190.05498304480855	0	0	0
455	1	1	-50.27061896891237	-2.494684291976301	190.3501300700816	0	0	0
456	1	1	-51.20155635722556	-2.346601343028432	190.68393692931537	0	0	0
457	1	1	-52.13249374553875	-2.5616450886084388	190.97908395458842	0	0	0
458	1	1	-53.06343113385194	-2.41356213966057	191.31289081382218	0	0	0
459	1	1	-53.99436852216513	-2.6286058852405767	191.60803783909523	0	0	0
460	1	1	-54.92530591047832	-2.480522936292708	191.941844698329	0	0	0
461	1	1	-55.85624329879151	-2.6955666818727146	192.23699172360205	0	0	0
462	1	1	-56.7871806871047	-2.547483732924846	192.5707985828358	0	0	0
463	1	1	-57.71811807541789	-2.7625274785048526	192.86594560810886	0	0	0
464	1	1	-58.64905546373108	-2.614444529556984	193.19975246734262	0	0	0
465	1	1	-59.57999285204427	-2.8294882751369905	193.49489949261567	0	0	0
466	1	1	-60.51093024035746	-2.6814053261891218	193.82870635184943	0	0	0
467	1	1	-61.44186762867065	-2.8964490717691285	194.1238533771225	0	0	0
468	1	1	-62.37280501698384	-2.7483661228212597	194.45766023635625	0	0	0
469	1	1	-63.30374240529703	-2.9634098684012664	194.7528072616293	0	0	0
470	1	1	-64.23467979361023	-2.8153269194533976	195.08661412086306	0	0	0
471	1	1	-65.16561718192342	-3.0303706650334044	195.3817611461361	0	0	0
472	1	1	-66.09655457023662	-2.8822877160855356	195.71556800536987	0	0	0
473	1	1	-67.02749195854982	-3.0973314616655423	196.01071503064293	0	0	0
474	1	1	-67.95842934686301	-2.9492485127176735	196.3445218898767	0	0	0
475	1	1	-68.88936673517621	-3.1642922582976802	196.63966891514974	0	0	0
476	1	1	-69.82030412348941	-3.0162093093498115	196.9734757743835	0	0	0
477	1	1	-70.7512415118026	-3.231253054929818	197.26862279965655	0	0	0
478	1	1	-71.6821789001158	-3.0831701059819494	197.60242965889032	0	0	0
479	1	1	-72.613116288429	-3.298213851561956	197.89757668416337	0	0	0
480	1	1	-73.5440536767422	-3.1501309026140873	198.23138354339713	0	0	0
481	1	1	-74.47499106505539	-3.365174648194094	198.52653056867018	0	0	0
482	1	1	-75.40592845336859	-3.2170916992462253	198.86033742790394	0	0	0
483	1	1	-76.33686584168179	-3.432135444826232	199.155484453177	0	0	0
484	1	1	-77.26780322999498	-3.2840524958783632	199.48929131241076	0	0	0
485	1	1	-78.19874061830818	-3.49909624145837	199.7844383376838	0	0	0
486	1	1	-79.12967800662138	-3.351013292510501	200.11824519691757	0	0	0