bb451nuc1bl225bn4d30tot900

901 atoms
900 bonds
902 angles

1 atom types
1 bond types
1 angle types

-1000 1000 xlo xhi
-1000 1000 ylo yhi
-1000 1000 zlo zhi

Masses

1 1

Atoms

1	1	1	0.0	0.0	0.0	0	0	0
2	1	1	0.0	0.0	1.0	0	0	0
3	1	1	0.0	-0.49999999999999994	1.8660254037844388	0	0	0
4	1	1	0.0	0.0	2.7320508075688776	0	0	0
5	1	1	0.0	-0.49999999999999994	3.5980762113533165	0	0	0
6	1	1	0.0	0.0	4.464101615137755	0	0	0
7	1	1	0.0	-0.49999999999999994	5.330127018922194	0	0	0
8	1	1	0.0	0.0	6.196152422706632	0	0	0
9	1	1	0.0	-0.49999999999999994	7.06217782649107	0	0	0
10	1	1	0.0	0.0	7.928203230275509	0	0	0
11	1	1	0.0	-0.49999999999999994	8.794228634059948	0	0	0
12	1	1	0.0	0.0	9.660254037844387	0	0	0
13	1	1	0.0	-0.49999999999999994	10.526279441628827	0	0	0
14	1	1	0.0	0.0	11.392304845413266	0	0	0
15	1	1	0.0	-0.49999999999999994	12.258330249197705	0	0	0
16	1	1	0.0	0.0	13.124355652982144	0	0	0
17	1	1	0.0	-0.49999999999999994	13.990381056766584	0	0	0
18	1	1	0.0	0.0	14.856406460551023	0	0	0
19	1	1	0.0	-0.49999999999999994	15.722431864335462	0	0	0
20	1	1	0.0	0.0	16.5884572681199	0	0	0
21	1	1	0.0	-0.49999999999999994	17.454482671904337	0	0	0
22	1	1	0.0	0.0	18.320508075688775	0	0	0
23	1	1	0.0	-0.49999999999999994	19.186533479473212	0	0	0
24	1	1	0.0	0.0	20.05255888325765	0	0	0
25	1	1	0.0	-0.49999999999999994	20.918584287042087	0	0	0
26	1	1	0.0	0.0	21.784609690826525	0	0	0
27	1	1	0.0	-0.49999999999999994	22.650635094610962	0	0	0
28	1	1	0.0	0.0	23.5166604983954	0	0	0
29	1	1	0.0	-0.49999999999999994	24.382685902179837	0	0	0
30	1	1	0.0	0.0	25.248711305964274	0	0	0
31	1	1	0.0	-0.49999999999999994	26.114736709748712	0	0	0
32	1	1	0.0	0.0	26.98076211353315	0	0	0
33	1	1	0.0	-0.49999999999999994	27.846787517317587	0	0	0
34	1	1	0.0	0.0	28.712812921102024	0	0	0
35	1	1	0.0	-0.49999999999999994	29.578838324886462	0	0	0
36	1	1	0.0	0.0	30.4448637286709	0	0	0
37	1	1	0.0	-0.49999999999999994	31.310889132455337	0	0	0
38	1	1	0.0	0.0	32.17691453623978	0	0	0
39	1	1	0.0	-0.49999999999999994	33.04293994002422	0	0	0
40	1	1	0.0	0.0	33.90896534380866	0	0	0
41	1	1	0.0	-0.49999999999999994	34.7749907475931	0	0	0
42	1	1	0.0	0.0	35.64101615137754	0	0	0
43	1	1	0.0	-0.49999999999999994	36.50704155516198	0	0	0
44	1	1	0.0	0.0	37.373066958946424	0	0	0
45	1	1	0.0	-0.49999999999999994	38.239092362730865	0	0	0
46	1	1	0.0	0.0	39.105117766515306	0	0	0
47	1	1	0.0	-0.49999999999999994	39.97114317029975	0	0	0
48	1	1	0.0	0.0	40.83716857408419	0	0	0
49	1	1	0.0	-0.49999999999999994	41.70319397786863	0	0	0
50	1	1	0.0	0.0	42.56921938165307	0	0	0
51	1	1	0.0	-0.49999999999999994	43.43524478543751	0	0	0
52	1	1	0.0	0.0	44.30127018922195	0	0	0
53	1	1	0.0	-0.49999999999999994	45.16729559300639	0	0	0
54	1	1	0.0	0.0	46.033320996790835	0	0	0
55	1	1	0.0	-0.49999999999999994	46.899346400575276	0	0	0
56	1	1	0.0	0.0	47.76537180435972	0	0	0
57	1	1	0.0	-0.49999999999999994	48.63139720814416	0	0	0
58	1	1	0.0	0.0	49.4974226119286	0	0	0
59	1	1	0.0	-0.49999999999999994	50.36344801571304	0	0	0
60	1	1	0.0	0.0	51.22947341949748	0	0	0
61	1	1	0.0	-0.49999999999999994	52.09549882328192	0	0	0
62	1	1	0.0	0.0	52.96152422706636	0	0	0
63	1	1	0.0	-0.49999999999999994	53.827549630850804	0	0	0
64	1	1	0.0	0.0	54.693575034635245	0	0	0
65	1	1	0.0	-0.49999999999999994	55.559600438419686	0	0	0
66	1	1	0.0	0.0	56.42562584220413	0	0	0
67	1	1	0.0	-0.49999999999999994	57.29165124598857	0	0	0
68	1	1	0.0	0.0	58.15767664977301	0	0	0
69	1	1	0.0	-0.49999999999999994	59.02370205355745	0	0	0
70	1	1	0.0	0.0	59.88972745734189	0	0	0
71	1	1	0.0	-0.49999999999999994	60.75575286112633	0	0	0
72	1	1	0.0	0.0	61.62177826491077	0	0	0
73	1	1	0.0	-0.49999999999999994	62.487803668695214	0	0	0
74	1	1	0.0	0.0	63.353829072479655	0	0	0
75	1	1	0.0	-0.49999999999999994	64.21985447626409	0	0	0
76	1	1	0.0	0.0	65.08587988004852	0	0	0
77	1	1	0.0	-0.49999999999999994	65.95190528383296	0	0	0
78	1	1	0.0	0.0	66.81793068761739	0	0	0
79	1	1	0.0	-0.49999999999999994	67.68395609140183	0	0	0
80	1	1	0.0	0.0	68.54998149518626	0	0	0
81	1	1	0.0	-0.49999999999999994	69.41600689897069	0	0	0
82	1	1	0.0	0.0	70.28203230275513	0	0	0
83	1	1	0.0	-0.49999999999999994	71.14805770653956	0	0	0
84	1	1	0.0	0.0	72.014083110324	0	0	0
85	1	1	0.0	-0.49999999999999994	72.88010851410843	0	0	0
86	1	1	0.0	0.0	73.74613391789286	0	0	0
87	1	1	0.0	-0.49999999999999994	74.6121593216773	0	0	0
88	1	1	0.0	0.0	75.47818472546173	0	0	0
89	1	1	0.0	-0.49999999999999994	76.34421012924616	0	0	0
90	1	1	0.0	0.0	77.2102355330306	0	0	0
91	1	1	0.0	-0.49999999999999994	78.07626093681503	0	0	0
92	1	1	0.0	0.0	78.94228634059947	0	0	0
93	1	1	0.0	-0.49999999999999994	79.8083117443839	0	0	0
94	1	1	0.0	0.0	80.67433714816833	0	0	0
95	1	1	0.0	-0.49999999999999994	81.54036255195277	0	0	0
96	1	1	0.0	0.0	82.4063879557372	0	0	0
97	1	1	0.0	-0.49999999999999994	83.27241335952164	0	0	0
98	1	1	0.0	0.0	84.13843876330607	0	0	0
99	1	1	0.0	-0.49999999999999994	85.0044641670905	0	0	0
100	1	1	0.0	0.0	85.87048957087494	0	0	0
101	1	1	0.0	-0.49999999999999994	86.73651497465937	0	0	0
102	1	1	0.0	0.0	87.6025403784438	0	0	0
103	1	1	0.0	-0.49999999999999994	88.46856578222824	0	0	0
104	1	1	0.0	0.0	89.33459118601267	0	0	0
105	1	1	0.0	-0.49999999999999994	90.20061658979711	0	0	0
106	1	1	0.0	0.0	91.06664199358154	0	0	0
107	1	1	0.0	-0.49999999999999994	91.93266739736598	0	0	0
108	1	1	0.0	0.0	92.79869280115041	0	0	0
109	1	1	0.0	-0.49999999999999994	93.66471820493484	0	0	0
110	1	1	0.0	0.0	94.53074360871928	0	0	0
111	1	1	0.0	-0.49999999999999994	95.39676901250371	0	0	0
112	1	1	0.0	0.0	96.26279441628814	0	0	0
113	1	1	0.0	-0.49999999999999994	97.12881982007258	0	0	0
114	1	1	0.0	0.0	97.99484522385701	0	0	0
115	1	1	0.0	-0.49999999999999994	98.86087062764145	0	0	0
116	1	1	0.0	0.0	99.72689603142588	0	0	0
117	1	1	0.0	-0.49999999999999994	100.59292143521031	0	0	0
118	1	1	0.0	0.0	101.45894683899475	0	0	0
119	1	1	0.0	-0.49999999999999994	102.32497224277918	0	0	0
120	1	1	0.0	0.0	103.19099764656362	0	0	0
121	1	1	0.0	-0.49999999999999994	104.05702305034805	0	0	0
122	1	1	0.0	0.0	104.92304845413248	0	0	0
123	1	1	0.0	-0.49999999999999994	105.78907385791692	0	0	0
124	1	1	0.0	0.0	106.65509926170135	0	0	0
125	1	1	0.0	-0.49999999999999994	107.52112466548579	0	0	0
126	1	1	0.0	0.0	108.38715006927022	0	0	0
127	1	1	0.0	-0.49999999999999994	109.25317547305465	0	0	0
128	1	1	0.0	0.0	110.11920087683909	0	0	0
129	1	1	0.0	-0.49999999999999994	110.98522628062352	0	0	0
130	1	1	0.0	0.0	111.85125168440796	0	0	0
131	1	1	0.0	-0.49999999999999994	112.71727708819239	0	0	0
132	1	1	0.0	0.0	113.58330249197682	0	0	0
133	1	1	0.0	-0.49999999999999994	114.44932789576126	0	0	0
134	1	1	0.0	0.0	115.31535329954569	0	0	0
135	1	1	0.0	-0.49999999999999994	116.18137870333013	0	0	0
136	1	1	0.0	0.0	117.04740410711456	0	0	0
137	1	1	0.0	-0.49999999999999994	117.913429510899	0	0	0
138	1	1	0.0	0.0	118.77945491468343	0	0	0
139	1	1	0.0	-0.49999999999999994	119.64548031846786	0	0	0
140	1	1	0.0	0.0	120.5115057222523	0	0	0
141	1	1	0.0	-0.49999999999999994	121.37753112603673	0	0	0
142	1	1	0.0	0.0	122.24355652982116	0	0	0
143	1	1	0.0	-0.49999999999999994	123.1095819336056	0	0	0
144	1	1	0.0	0.0	123.97560733739003	0	0	0
145	1	1	0.0	-0.49999999999999994	124.84163274117446	0	0	0
146	1	1	0.0	0.0	125.7076581449589	0	0	0
147	1	1	0.0	-0.49999999999999994	126.57368354874333	0	0	0
148	1	1	0.0	0.0	127.43970895252777	0	0	0
149	1	1	0.0	-0.49999999999999994	128.3057343563122	0	0	0
150	1	1	0.0	0.0	129.17175976009665	0	0	0
151	1	1	0.0	-0.49999999999999994	130.0377851638811	0	0	0
152	1	1	0.0	0.0	130.90381056766554	0	0	0
153	1	1	0.0	-0.49999999999999994	131.76983597145	0	0	0
154	1	1	0.0	0.0	132.63586137523444	0	0	0
155	1	1	0.0	-0.49999999999999994	133.5018867790189	0	0	0
156	1	1	0.0	0.0	134.36791218280334	0	0	0
157	1	1	0.0	-0.49999999999999994	135.23393758658779	0	0	0
158	1	1	0.0	0.0	136.09996299037223	0	0	0
159	1	1	0.0	-0.49999999999999994	136.96598839415668	0	0	0
160	1	1	0.0	0.0	137.83201379794113	0	0	0
161	1	1	0.0	-0.49999999999999994	138.69803920172558	0	0	0
162	1	1	0.0	0.0	139.56406460551003	0	0	0
163	1	1	0.0	-0.49999999999999994	140.43009000929447	0	0	0
164	1	1	0.0	0.0	141.29611541307892	0	0	0
165	1	1	0.0	-0.49999999999999994	142.16214081686337	0	0	0
166	1	1	0.0	0.0	143.02816622064782	0	0	0
167	1	1	0.0	-0.49999999999999994	143.89419162443227	0	0	0
168	1	1	0.0	0.0	144.76021702821672	0	0	0
169	1	1	0.0	-0.49999999999999994	145.62624243200116	0	0	0
170	1	1	0.0	0.0	146.4922678357856	0	0	0
171	1	1	0.0	-0.49999999999999994	147.35829323957006	0	0	0
172	1	1	0.0	0.0	148.2243186433545	0	0	0
173	1	1	0.0	-0.49999999999999994	149.09034404713896	0	0	0
174	1	1	0.0	0.0	149.9563694509234	0	0	0
175	1	1	0.0	-0.49999999999999994	150.82239485470785	0	0	0
176	1	1	0.0	0.0	151.6884202584923	0	0	0
177	1	1	0.0	-0.49999999999999994	152.55444566227675	0	0	0
178	1	1	0.0	0.0	153.4204710660612	0	0	0
179	1	1	0.0	-0.49999999999999994	154.28649646984564	0	0	0
180	1	1	0.0	0.0	155.1525218736301	0	0	0
181	1	1	0.0	-0.49999999999999994	156.01854727741454	0	0	0
182	1	1	0.0	0.0	156.884572681199	0	0	0
183	1	1	0.0	-0.49999999999999994	157.75059808498344	0	0	0
184	1	1	0.0	0.0	158.61662348876789	0	0	0
185	1	1	0.0	-0.49999999999999994	159.48264889255233	0	0	0
186	1	1	0.0	0.0	160.34867429633678	0	0	0
187	1	1	0.0	-0.49999999999999994	161.21469970012123	0	0	0
188	1	1	0.0	0.0	162.08072510390568	0	0	0
189	1	1	0.0	-0.49999999999999994	162.94675050769013	0	0	0
190	1	1	0.0	0.0	163.81277591147457	0	0	0
191	1	1	0.0	-0.49999999999999994	164.67880131525902	0	0	0
192	1	1	0.0	0.0	165.54482671904347	0	0	0
193	1	1	0.0	-0.49999999999999994	166.41085212282792	0	0	0
194	1	1	0.0	0.0	167.27687752661237	0	0	0
195	1	1	0.0	-0.49999999999999994	168.14290293039682	0	0	0
196	1	1	0.0	0.0	169.00892833418126	0	0	0
197	1	1	0.0	-0.49999999999999994	169.8749537379657	0	0	0
198	1	1	0.0	0.0	170.74097914175016	0	0	0
199	1	1	0.0	-0.49999999999999994	171.6070045455346	0	0	0
200	1	1	0.0	0.0	172.47302994931906	0	0	0
201	1	1	0.0	-0.49999999999999994	173.3390553531035	0	0	0
202	1	1	0.0	0.0	174.20508075688795	0	0	0
203	1	1	0.0	-0.49999999999999994	175.0711061606724	0	0	0
204	1	1	0.0	0.0	175.93713156445685	0	0	0
205	1	1	0.0	-0.49999999999999994	176.8031569682413	0	0	0
206	1	1	0.0	0.0	177.66918237202574	0	0	0
207	1	1	0.0	-0.49999999999999994	178.5352077758102	0	0	0
208	1	1	0.0	0.0	179.40123317959464	0	0	0
209	1	1	0.0	-0.49999999999999994	180.2672585833791	0	0	0
210	1	1	0.0	0.0	181.13328398716354	0	0	0
211	1	1	0.0	-0.49999999999999994	181.99930939094799	0	0	0
212	1	1	0.0	0.0	182.86533479473243	0	0	0
213	1	1	0.0	-0.49999999999999994	183.73136019851688	0	0	0
214	1	1	0.0	0.0	184.59738560230133	0	0	0
215	1	1	0.0	-0.49999999999999994	185.46341100608578	0	0	0
216	1	1	0.0	0.0	186.32943640987023	0	0	0
217	1	1	0.0	-0.49999999999999994	187.19546181365467	0	0	0
218	1	1	0.0	0.0	188.06148721743912	0	0	0
219	1	1	0.0	-0.49999999999999994	188.92751262122357	0	0	0
220	1	1	0.0	0.0	189.79353802500802	0	0	0
221	1	1	0.0	-0.49999999999999994	190.65956342879247	0	0	0
222	1	1	0.0	0.0	191.52558883257691	0	0	0
223	1	1	0.0	-0.49999999999999994	192.39161423636136	0	0	0
224	1	1	0.0	0.0	193.2576396401458	0	0	0
225	1	1	0.0	-0.49999999999999994	194.12366504393026	0	0	0
226	1	1	0.0	0.0	194.9896904477147	0	0	0
227	1	1	-0.8740758793560038	-0.13874874752634625	195.4552440345207	0	0	0
228	1	1	-1.7481517587120003	-0.49168548103042387	195.78905089375445	0	0	0
229	1	1	-2.6222276380679967	-0.37906862772852246	196.26160650051457	0	0	0
230	1	1	-3.496303517423993	-0.7320053612326001	196.59541335974833	0	0	0
231	1	1	-4.37037939677999	-0.6193885079306987	197.06796896650846	0	0	0
232	1	1	-5.244455276135986	-0.9723252414347763	197.40177582574222	0	0	0
233	1	1	-6.118531155491983	-0.8597083881328749	197.87433143250234	0	0	0
234	1	1	-6.992607034847979	-1.2126451216369525	198.2081382917361	0	0	0
235	1	1	-7.866682914203976	-1.100028268335051	198.68069389849623	0	0	0
236	1	1	-8.740758793559973	-1.4529650018391287	199.01450075773	0	0	0
237	1	1	-9.61483467291597	-1.3403481485372273	199.48705636449012	0	0	0
238	1	1	-10.488910552271967	-1.693284882041305	199.82086322372388	0	0	0
239	1	1	-11.362986431627965	-1.5806680287394035	200.293418830484	0	0	0
240	1	1	-12.237062310983962	-1.933604762243481	200.62722568971776	0	0	0
241	1	1	-13.11113819033996	-1.8209879089415797	201.0997812964779	0	0	0
242	1	1	-13.985214069695957	-2.173924642445657	201.43358815571165	0	0	0
243	1	1	-14.859289949051954	-2.061307789143756	201.90614376247177	0	0	0
244	1	1	-15.733365828407951	-2.4142445226478335	202.23995062170553	0	0	0
245	1	1	-16.607441707763947	-2.3016276693459323	202.71250622846566	0	0	0
246	1	1	-17.481517587119942	-2.65456440285001	203.04631308769942	0	0	0
247	1	1	-18.355593466475938	-2.5419475495481088	203.51886869445954	0	0	0
248	1	1	-19.229669345831933	-2.8948842830521864	203.8526755536933	0	0	0
249	1	1	-20.10374522518793	-2.782267429750285	204.32523116045343	0	0	0
250	1	1	-20.977821104543924	-3.135204163254363	204.6590380196872	0	0	0
251	1	1	-21.85189698389992	-3.0225873099524616	205.1315936264473	0	0	0
252	1	1	-22.725972863255915	-3.3755240434565392	205.46540048568107	0	0	0
253	1	1	-23.60004874261191	-3.262907190154638	205.9379560924412	0	0	0
254	1	1	-24.474124621967906	-3.6158439236587157	206.27176295167496	0	0	0
255	1	1	-25.348200501323902	-3.5032270703568145	206.74431855843508	0	0	0
256	1	1	-26.222276380679897	-3.856163803860892	207.07812541766884	0	0	0
257	1	1	-27.096352260035893	-3.743546950558991	207.55068102442897	0	0	0
258	1	1	-27.97042813939189	-4.0964836840630685	207.88448788366273	0	0	0
259	1	1	-28.844504018747884	-3.9838668307611673	208.35704349042285	0	0	0
260	1	1	-29.71857989810388	-4.336803564265245	208.6908503496566	0	0	0
261	1	1	-30.592655777459875	-4.224186710963344	209.16340595641674	0	0	0
262	1	1	-31.46673165681587	-4.577123444467421	209.4972128156505	0	0	0
263	1	1	-32.340807536171866	-4.46450659116552	209.96976842241062	0	0	0
264	1	1	-33.214883415527865	-4.817443324669598	210.30357528164438	0	0	0
265	1	1	-34.088959294883864	-4.704826471367697	210.7761308884045	0	0	0
266	1	1	-34.96303517423986	-5.057763204871774	211.10993774763827	0	0	0
267	1	1	-35.83711105359586	-4.945146351569873	211.5824933543984	0	0	0
268	1	1	-36.71118693295186	-5.298083085073951	211.91630021363216	0	0	0
269	1	1	-37.58526281230786	-5.1854662317720495	212.38885582039228	0	0	0
270	1	1	-38.45933869166386	-5.538402965276127	212.72266267962604	0	0	0
271	1	1	-39.33341457101986	-5.425786111974226	213.19521828638617	0	0	0
272	1	1	-40.20749045037586	-5.7787228454783035	213.52902514561993	0	0	0
273	1	1	-41.08156632973186	-5.666105992176402	214.00158075238005	0	0	0
274	1	1	-41.955642209087856	-6.01904272568048	214.3353876116138	0	0	0
275	1	1	-42.829718088443855	-5.906425872378579	214.80794321837394	0	0	0
276	1	1	-43.703793967799854	-6.259362605882656	215.1417500776077	0	0	0
277	1	1	-44.57786984715585	-6.146745752580755	215.61430568436782	0	0	0
278	1	1	-45.45194572651185	-6.499682486084833	215.94811254360158	0	0	0
279	1	1	-46.32602160586785	-6.387065632782932	216.4206681503617	0	0	0
280	1	1	-47.20009748522385	-6.740002366287009	216.75447500959547	0	0	0
281	1	1	-48.07417336457985	-6.627385512985108	217.2270306163556	0	0	0
282	1	1	-48.94824924393585	-6.980322246489186	217.56083747558935	0	0	0
283	1	1	-49.82232512329185	-6.8677053931872845	218.03339308234948	0	0	0
284	1	1	-50.696401002647846	-7.220642126691362	218.36719994158324	0	0	0
285	1	1	-51.570476882003845	-7.108025273389461	218.83975554834336	0	0	0
286	1	1	-52.444552761359844	-7.4609620068935385	219.17356240757712	0	0	0
287	1	1	-53.31862864071584	-7.348345153591637	219.64611801433725	0	0	0
288	1	1	-54.19270452007184	-7.701281887095715	219.979924873571	0	0	0
289	1	1	-55.06678039942784	-7.588665033793814	220.45248048033113	0	0	0
290	1	1	-55.94085627878384	-7.941601767297891	220.7862873395649	0	0	0
291	1	1	-56.81493215813984	-7.82898491399599	221.25884294632502	0	0	0
292	1	1	-57.68900803749584	-8.181921647500069	221.59264980555878	0	0	0
293	1	1	-58.56308391685184	-8.069304794198167	222.0652054123189	0	0	0
294	1	1	-59.43715979620784	-8.422241527702244	222.39901227155266	0	0	0
295	1	1	-60.311235675563836	-8.309624674400343	222.8715678783128	0	0	0
296	1	1	-61.185311554919835	-8.66256140790442	223.20537473754655	0	0	0
297	1	1	-62.059387434275834	-8.549944554602519	223.67793034430667	0	0	0
298	1	1	-62.93346331363183	-8.902881288106595	224.01173720354043	0	0	0
299	1	1	-63.80753919298783	-8.790264434804694	224.48429281030056	0	0	0
300	1	1	-64.68161507234383	-9.14320116830877	224.81809966953432	0	0	0
301	1	1	-65.55569095169983	-9.03058431500687	225.29065527629444	0	0	0
302	1	1	-66.42976683105583	-9.383521048510946	225.6244621355282	0	0	0
303	1	1	-67.30384271041183	-9.270904195209045	226.09701774228833	0	0	0
304	1	1	-68.17791858976783	-9.623840928713122	226.4308246015221	0	0	0
305	1	1	-69.05199446912383	-9.51122407541122	226.90338020828221	0	0	0
306	1	1	-69.92607034847983	-9.864160808915297	227.23718706751598	0	0	0
307	1	1	-70.80014622783582	-9.751543955613396	227.7097426742761	0	0	0
308	1	1	-71.67422210719182	-10.104480689117473	228.04354953350986	0	0	0
309	1	1	-72.54829798654782	-9.991863835815572	228.51610514026999	0	0	0
310	1	1	-73.42237386590382	-10.344800569319649	228.84991199950375	0	0	0
311	1	1	-74.29644974525982	-10.232183716017747	229.32246760626387	0	0	0
312	1	1	-75.17052562461582	-10.585120449521824	229.65627446549763	0	0	0
313	1	1	-76.04460150397182	-10.472503596219923	230.12883007225776	0	0	0
314	1	1	-76.91867738332782	-10.825440329724	230.46263693149152	0	0	0
315	1	1	-77.79275326268382	-10.712823476422098	230.93519253825164	0	0	0
316	1	1	-78.66682914203982	-11.065760209926175	231.2689993974854	0	0	0
317	1	1	-79.54090502139582	-10.953143356624274	231.74155500424553	0	0	0
318	1	1	-80.41498090075181	-11.30608009012835	232.0753618634793	0	0	0
319	1	1	-81.28905678010781	-11.19346323682645	232.5479174702394	0	0	0
320	1	1	-82.16313265946381	-11.546399970330526	232.88172432947317	0	0	0
321	1	1	-83.03720853881981	-11.433783117028625	233.3542799362333	0	0	0
322	1	1	-83.91128441817581	-11.786719850532702	233.68808679546706	0	0	0
323	1	1	-84.78536029753181	-11.6741029972308	234.16064240222718	0	0	0
324	1	1	-85.65943617688781	-12.027039730734877	234.49444926146094	0	0	0
325	1	1	-86.53351205624381	-11.914422877432976	234.96700486822107	0	0	0
326	1	1	-87.4075879355998	-12.267359610937053	235.30081172745483	0	0	0
327	1	1	-88.2816638149558	-12.154742757635152	235.77336733421495	0	0	0
328	1	1	-89.1557396943118	-12.507679491139228	236.1071741934487	0	0	0
329	1	1	-90.0298155736678	-12.395062637837327	236.57972980020884	0	0	0
330	1	1	-90.9038914530238	-12.747999371341404	236.9135366594426	0	0	0
331	1	1	-91.7779673323798	-12.635382518039503	237.38609226620272	0	0	0
332	1	1	-92.6520432117358	-12.98831925154358	237.71989912543648	0	0	0
333	1	1	-93.5261190910918	-12.875702398241678	238.1924547321966	0	0	0
334	1	1	-94.4001949704478	-13.228639131745755	238.52626159143037	0	0	0
335	1	1	-95.2742708498038	-13.116022278443854	238.9988171981905	0	0	0
336	1	1	-96.1483467291598	-13.46895901194793	239.33262405742425	0	0	0
337	1	1	-97.0224226085158	-13.35634215864603	239.80517966418438	0	0	0
338	1	1	-97.8964984878718	-13.709278892150106	240.13898652341814	0	0	0
339	1	1	-98.7705743672278	-13.596662038848205	240.61154213017826	0	0	0
340	1	1	-99.6446502465838	-13.949598772352282	240.94534898941203	0	0	0
341	1	1	-100.51872612593979	-13.83698191905038	241.41790459617215	0	0	0
342	1	1	-101.39280200529579	-14.189918652554457	241.7517114554059	0	0	0
343	1	1	-102.26687788465179	-14.077301799252556	242.22426706216604	0	0	0
344	1	1	-103.14095376400779	-14.430238532756633	242.5580739213998	0	0	0
345	1	1	-104.01502964336379	-14.317621679454732	243.03062952815992	0	0	0
346	1	1	-104.88910552271979	-14.670558412958808	243.36443638739368	0	0	0
347	1	1	-105.76318140207579	-14.557941559656907	243.8369919941538	0	0	0
348	1	1	-106.63725728143179	-14.910878293160984	244.17079885338757	0	0	0
349	1	1	-107.51133316078779	-14.798261439859083	244.6433544601477	0	0	0
350	1	1	-108.38540904014378	-15.15119817336316	244.97716131938145	0	0	0
351	1	1	-109.25948491949978	-15.038581320061258	245.44971692614158	0	0	0
352	1	1	-110.13356079885578	-15.391518053565335	245.78352378537534	0	0	0
353	1	1	-111.00763667821178	-15.278901200263434	246.25607939213546	0	0	0
354	1	1	-111.88171255756778	-15.63183793376751	246.58988625136922	0	0	0
355	1	1	-112.75578843692378	-15.51922108046561	247.06244185812935	0	0	0
356	1	1	-113.62986431627978	-15.872157813969686	247.3962487173631	0	0	0
357	1	1	-114.50394019563578	-15.759540960667785	247.86880432412323	0	0	0
358	1	1	-115.37801607499178	-16.11247769417186	248.202611183357	0	0	0
359	1	1	-116.25209195434778	-15.99986084086996	248.67516679011712	0	0	0
360	1	1	-117.12616783370378	-16.352797574374037	249.00897364935088	0	0	0
361	1	1	-118.00024371305977	-16.240180721072136	249.481529256111	0	0	0
362	1	1	-118.87431959241577	-16.593117454576213	249.81533611534476	0	0	0
363	1	1	-119.74839547177177	-16.48050060127431	250.2878917221049	0	0	0
364	1	1	-120.62247135112777	-16.833437334778388	250.62169858133865	0	0	0
365	1	1	-121.49654723048377	-16.720820481476487	251.09425418809877	0	0	0
366	1	1	-122.37062310983977	-17.073757214980564	251.42806104733253	0	0	0
367	1	1	-123.24469898919577	-16.961140361678662	251.90061665409266	0	0	0
368	1	1	-124.11877486855177	-17.31407709518274	252.23442351332642	0	0	0
369	1	1	-124.99285074790777	-17.201460241880838	252.70697912008654	0	0	0
370	1	1	-125.86692662726377	-17.554396975384915	253.0407859793203	0	0	0
371	1	1	-126.74100250661976	-17.441780122083014	253.51334158608043	0	0	0
372	1	1	-127.61507838597576	-17.79471685558709	253.8471484453142	0	0	0
373	1	1	-128.48915426533176	-17.68210000228519	254.31970405207431	0	0	0
374	1	1	-129.36323014468775	-18.035036735789266	254.65351091130808	0	0	0
375	1	1	-130.23730602404373	-17.922419882487365	255.1260665180682	0	0	0
376	1	1	-131.11138190339972	-18.27535661599144	255.45987337730196	0	0	0
377	1	1	-131.9854577827557	-18.16273976268954	255.93242898406208	0	0	0
378	1	1	-132.8595336621117	-18.515676496193617	256.2662358432959	0	0	0
379	1	1	-133.73360954146767	-18.403059642891716	256.738791450056	0	0	0
380	1	1	-134.60768542082366	-18.755996376395792	257.0725983092898	0	0	0
381	1	1	-135.48176130017964	-18.64337952309389	257.5451539160499	0	0	0
382	1	1	-136.35583717953563	-18.996316256597968	257.8789607752837	0	0	0
383	1	1	-137.2299130588916	-18.883699403296067	258.3515163820438	0	0	0
384	1	1	-138.1039889382476	-19.236636136800144	258.6853232412776	0	0	0
385	1	1	-138.97806481760358	-19.124019283498242	259.15787884803774	0	0	0
386	1	1	-139.85214069695957	-19.47695601700232	259.49168570727153	0	0	0
387	1	1	-140.72621657631555	-19.364339163700418	259.96424131403165	0	0	0
388	1	1	-141.60029245567154	-19.717275897204495	260.29804817326544	0	0	0
389	1	1	-142.47436833502752	-19.604659043902593	260.77060378002557	0	0	0
390	1	1	-143.3484442143835	-19.95759577740667	261.10441063925936	0	0	0
391	1	1	-144.2225200937395	-19.84497892410477	261.5769662460195	0	0	0
392	1	1	-145.09659597309548	-20.197915657608846	261.91077310525327	0	0	0
393	1	1	-145.97067185245146	-20.085298804306944	262.3833287120134	0	0	0
394	1	1	-146.84474773180744	-20.43823553781102	262.7171355712472	0	0	0
395	1	1	-147.71882361116343	-20.32561868450912	263.1896911780073	0	0	0
396	1	1	-148.59289949051941	-20.678555418013197	263.5234980372411	0	0	0
397	1	1	-149.4669753698754	-20.565938564711296	263.9960536440012	0	0	0
398	1	1	-150.34105124923138	-20.918875298215372	264.329860503235	0	0	0
399	1	1	-151.21512712858737	-20.80625844491347	264.80241610999514	0	0	0
400	1	1	-152.08920300794335	-21.159195178417548	265.1362229692289	0	0	0
401	1	1	-152.96327888729934	-21.046578325115647	265.60877857598905	0	0	0
402	1	1	-153.83735476665532	-21.399515058619723	265.94258543522284	0	0	0
403	1	1	-154.7114306460113	-21.286898205317822	266.41514104198296	0	0	0
404	1	1	-155.5855065253673	-21.6398349388219	266.74894790121675	0	0	0
405	1	1	-156.45958240472328	-21.527218085519998	267.2215035079769	0	0	0
406	1	1	-157.33365828407926	-21.880154819024074	267.55531036721067	0	0	0
407	1	1	-158.20773416343525	-21.767537965722173	268.0278659739708	0	0	0
408	1	1	-159.08181004279123	-22.12047469922625	268.3616728332046	0	0	0
409	1	1	-159.95588592214722	-22.00785784592435	268.8342284399647	0	0	0
410	1	1	-160.8299618015032	-22.360794579428426	269.1680352991985	0	0	0
411	1	1	-161.7040376808592	-22.248177726126524	269.6405909059586	0	0	0
412	1	1	-162.57811356021517	-22.6011144596306	269.9743977651924	0	0	0
413	1	1	-163.45218943957116	-22.4884976063287	270.44695337195253	0	0	0
414	1	1	-164.32626531892714	-22.841434339832777	270.7807602311863	0	0	0
415	1	1	-165.20034119828313	-22.728817486530875	271.25331583794645	0	0	0
416	1	1	-166.0744170776391	-23.081754220034952	271.58712269718023	0	0	0
417	1	1	-166.9484929569951	-22.96913736673305	272.05967830394036	0	0	0
418	1	1	-167.82256883635108	-23.322074100237128	272.39348516317415	0	0	0
419	1	1	-168.69664471570707	-23.209457246935226	272.8660407699343	0	0	0
420	1	1	-169.57072059506305	-23.562393980439303	273.19984762916806	0	0	0
421	1	1	-170.44479647441904	-23.449777127137402	273.6724032359282	0	0	0
422	1	1	-171.31887235377502	-23.80271386064148	274.006210095162	0	0	0
423	1	1	-172.192948233131	-23.690097007339578	274.4787657019221	0	0	0
424	1	1	-173.067024112487	-24.043033740843654	274.8125725611559	0	0	0
425	1	1	-173.94109999184298	-23.930416887541753	275.285128167916	0	0	0
426	1	1	-174.81517587119896	-24.28335362104583	275.6189350271498	0	0	0
427	1	1	-175.68925175055494	-24.17073676774393	276.0914906339099	0	0	0
428	1	1	-176.56332762991093	-24.523673501248005	276.4252974931437	0	0	0
429	1	1	-177.43740350926691	-24.411056647946104	276.89785309990384	0	0	0
430	1	1	-178.3114793886229	-24.76399338145018	277.23165995913763	0	0	0
431	1	1	-179.18555526797888	-24.65137652814828	277.70421556589775	0	0	0
432	1	1	-180.05963114733487	-25.004313261652356	278.03802242513154	0	0	0
433	1	1	-180.93370702669085	-24.891696408350455	278.51057803189167	0	0	0
434	1	1	-181.80778290604684	-25.244633141854532	278.84438489112546	0	0	0
435	1	1	-182.68185878540282	-25.13201628855263	279.3169404978856	0	0	0
436	1	1	-183.5559346647588	-25.484953022056708	279.65074735711937	0	0	0
437	1	1	-184.4300105441148	-25.372336168754806	280.1233029638795	0	0	0
438	1	1	-185.30408642347078	-25.725272902258883	280.4571098231133	0	0	0
439	1	1	-186.17816230282676	-25.612656048956982	280.9296654298734	0	0	0
440	1	1	-187.05223818218275	-25.96559278246106	281.2634722891072	0	0	0
441	1	1	-187.92631406153873	-25.852975929159157	281.7360278958673	0	0	0
442	1	1	-188.80038994089472	-26.205912662663234	282.0698347551011	0	0	0
443	1	1	-189.6744658202507	-26.093295809361333	282.54239036186124	0	0	0
444	1	1	-190.5485416996067	-26.44623254286541	282.876197221095	0	0	0
445	1	1	-191.42261757896267	-26.33361568956351	283.34875282785515	0	0	0
446	1	1	-192.29669345831866	-26.686552423067585	283.68255968708894	0	0	0
447	1	1	-193.17076933767464	-26.573935569765684	284.15511529384906	0	0	0
448	1	1	-194.04484521703063	-26.92687230326976	284.48892215308285	0	0	0
449	1	1	-194.9189210963866	-26.81425544996786	284.961477759843	0	0	0
450	1	1	-195.7929969757426	-27.167192183471936	285.29528461907677	0	0	0
451	1	1	-196.66707285509858	-27.054575330170035	285.7678402258369	0	0	0
452	1	1	0.13138576253478687	0.975286427705504	194.81205552621387	0	0	0
453	1	1	0.26277152506957263	1.9087267108150532	195.14586238544766	0	0	0
454	1	1	0.3941572876043584	2.6645320724237735	194.50438281697595	0	0	0
455	1	1	0.5255430501391442	3.5979723555333227	194.83818967620974	0	0	0
456	1	1	0.6569288126739299	4.353777717142043	194.19671010773803	0	0	0
457	1	1	0.7883145752087156	5.287218000251592	194.53051696697182	0	0	0
458	1	1	0.9197003377435014	6.043023361860312	193.8890373985001	0	0	0
459	1	1	1.0510861002782872	6.976463644969861	194.2228442577339	0	0	0
460	1	1	1.182471862813073	7.732269006578582	193.5813646892622	0	0	0
461	1	1	1.3138576253478589	8.665709289688131	193.91517154849598	0	0	0
462	1	1	1.4452433878826447	9.421514651296851	193.27369198002427	0	0	0
463	1	1	1.5766291504174306	10.3549549344064	193.60749883925806	0	0	0
464	1	1	1.7080149129522164	11.11076029601512	192.96601927078635	0	0	0
465	1	1	1.8394006754870023	12.04420057912467	193.29982613002014	0	0	0
466	1	1	1.970786438021788	12.80000594073339	192.65834656154843	0	0	0
467	1	1	2.102172200556574	13.73344622384294	192.99215342078222	0	0	0
468	1	1	2.23355796309136	14.48925158545166	192.3506738523105	0	0	0
469	1	1	2.3649437256261456	15.422691868561209	192.6844807115443	0	0	0
470	1	1	2.4963294881609315	16.17849723016993	192.0430011430726	0	0	0
471	1	1	2.6277152506957173	17.11193751327948	192.37680800230638	0	0	0
472	1	1	2.759101013230503	17.8677428748882	191.73532843383467	0	0	0
473	1	1	2.890486775765289	18.801183157997748	192.06913529306846	0	0	0
474	1	1	3.021872538300075	19.55698851960647	191.42765572459675	0	0	0
475	1	1	3.1532583008348607	20.490428802716018	191.76146258383054	0	0	0
476	1	1	3.2846440633696465	21.24623416432474	191.11998301535883	0	0	0
477	1	1	3.4160298259044324	22.179674447434287	191.45378987459262	0	0	0
478	1	1	3.5474155884392182	22.93547980904301	190.8123103061209	0	0	0
479	1	1	3.678801350974004	23.868920092152557	191.1461171653547	0	0	0
480	1	1	3.81018711350879	24.62472545376128	190.504637596883	0	0	0
481	1	1	3.9415728760435758	25.558165736870826	190.83844445611678	0	0	0
482	1	1	4.072958638578362	26.31397109847955	190.19696488764507	0	0	0
483	1	1	4.204344401113147	27.247411381589096	190.53077174687886	0	0	0
484	1	1	4.335730163647932	28.003216743197818	189.88929217840715	0	0	0
485	1	1	4.467115926182718	28.936657026307365	190.22309903764094	0	0	0
486	1	1	4.598501688717503	29.692462387916088	189.58161946916923	0	0	0
487	1	1	4.729887451252289	30.625902671025635	189.91542632840302	0	0	0
488	1	1	4.861273213787074	31.381708032634357	189.2739467599313	0	0	0
489	1	1	4.992658976321859	32.315148315743905	189.6077536191651	0	0	0
490	1	1	5.124044738856645	33.07095367735263	188.96627405069339	0	0	0
491	1	1	5.25543050139143	34.004393960462174	189.30008090992717	0	0	0