bb501nuc1bl250bn4d30tot1000

1001 atoms
1000 bonds
1002 angles

1 atom types
1 bond types
1 angle types

-1000 1000 xlo xhi
-1000 1000 ylo yhi
-1000 1000 zlo zhi

Masses

1 1

Atoms

1	1	1	0.0	0.0	0.0	0	0	0
2	1	1	0.0	0.0	1.0	0	0	0
3	1	1	0.0	-0.49999999999999994	1.8660254037844388	0	0	0
4	1	1	0.0	0.0	2.7320508075688776	0	0	0
5	1	1	0.0	-0.49999999999999994	3.5980762113533165	0	0	0
6	1	1	0.0	0.0	4.464101615137755	0	0	0
7	1	1	0.0	-0.49999999999999994	5.330127018922194	0	0	0
8	1	1	0.0	0.0	6.196152422706632	0	0	0
9	1	1	0.0	-0.49999999999999994	7.06217782649107	0	0	0
10	1	1	0.0	0.0	7.928203230275509	0	0	0
11	1	1	0.0	-0.49999999999999994	8.794228634059948	0	0	0
12	1	1	0.0	0.0	9.660254037844387	0	0	0
13	1	1	0.0	-0.49999999999999994	10.526279441628827	0	0	0
14	1	1	0.0	0.0	11.392304845413266	0	0	0
15	1	1	0.0	-0.49999999999999994	12.258330249197705	0	0	0
16	1	1	0.0	0.0	13.124355652982144	0	0	0
17	1	1	0.0	-0.49999999999999994	13.990381056766584	0	0	0
18	1	1	0.0	0.0	14.856406460551023	0	0	0
19	1	1	0.0	-0.49999999999999994	15.722431864335462	0	0	0
20	1	1	0.0	0.0	16.5884572681199	0	0	0
21	1	1	0.0	-0.49999999999999994	17.454482671904337	0	0	0
22	1	1	0.0	0.0	18.320508075688775	0	0	0
23	1	1	0.0	-0.49999999999999994	19.186533479473212	0	0	0
24	1	1	0.0	0.0	20.05255888325765	0	0	0
25	1	1	0.0	-0.49999999999999994	20.918584287042087	0	0	0
26	1	1	0.0	0.0	21.784609690826525	0	0	0
27	1	1	0.0	-0.49999999999999994	22.650635094610962	0	0	0
28	1	1	0.0	0.0	23.5166604983954	0	0	0
29	1	1	0.0	-0.49999999999999994	24.382685902179837	0	0	0
30	1	1	0.0	0.0	25.248711305964274	0	0	0
31	1	1	0.0	-0.49999999999999994	26.114736709748712	0	0	0
32	1	1	0.0	0.0	26.98076211353315	0	0	0
33	1	1	0.0	-0.49999999999999994	27.846787517317587	0	0	0
34	1	1	0.0	0.0	28.712812921102024	0	0	0
35	1	1	0.0	-0.49999999999999994	29.578838324886462	0	0	0
36	1	1	0.0	0.0	30.4448637286709	0	0	0
37	1	1	0.0	-0.49999999999999994	31.310889132455337	0	0	0
38	1	1	0.0	0.0	32.17691453623978	0	0	0
39	1	1	0.0	-0.49999999999999994	33.04293994002422	0	0	0
40	1	1	0.0	0.0	33.90896534380866	0	0	0
41	1	1	0.0	-0.49999999999999994	34.7749907475931	0	0	0
42	1	1	0.0	0.0	35.64101615137754	0	0	0
43	1	1	0.0	-0.49999999999999994	36.50704155516198	0	0	0
44	1	1	0.0	0.0	37.373066958946424	0	0	0
45	1	1	0.0	-0.49999999999999994	38.239092362730865	0	0	0
46	1	1	0.0	0.0	39.105117766515306	0	0	0
47	1	1	0.0	-0.49999999999999994	39.97114317029975	0	0	0
48	1	1	0.0	0.0	40.83716857408419	0	0	0
49	1	1	0.0	-0.49999999999999994	41.70319397786863	0	0	0
50	1	1	0.0	0.0	42.56921938165307	0	0	0
51	1	1	0.0	-0.49999999999999994	43.43524478543751	0	0	0
52	1	1	0.0	0.0	44.30127018922195	0	0	0
53	1	1	0.0	-0.49999999999999994	45.16729559300639	0	0	0
54	1	1	0.0	0.0	46.033320996790835	0	0	0
55	1	1	0.0	-0.49999999999999994	46.899346400575276	0	0	0
56	1	1	0.0	0.0	47.76537180435972	0	0	0
57	1	1	0.0	-0.49999999999999994	48.63139720814416	0	0	0
58	1	1	0.0	0.0	49.4974226119286	0	0	0
59	1	1	0.0	-0.49999999999999994	50.36344801571304	0	0	0
60	1	1	0.0	0.0	51.22947341949748	0	0	0
61	1	1	0.0	-0.49999999999999994	52.09549882328192	0	0	0
62	1	1	0.0	0.0	52.96152422706636	0	0	0
63	1	1	0.0	-0.49999999999999994	53.827549630850804	0	0	0
64	1	1	0.0	0.0	54.693575034635245	0	0	0
65	1	1	0.0	-0.49999999999999994	55.559600438419686	0	0	0
66	1	1	0.0	0.0	56.42562584220413	0	0	0
67	1	1	0.0	-0.49999999999999994	57.29165124598857	0	0	0
68	1	1	0.0	0.0	58.15767664977301	0	0	0
69	1	1	0.0	-0.49999999999999994	59.02370205355745	0	0	0
70	1	1	0.0	0.0	59.88972745734189	0	0	0
71	1	1	0.0	-0.49999999999999994	60.75575286112633	0	0	0
72	1	1	0.0	0.0	61.62177826491077	0	0	0
73	1	1	0.0	-0.49999999999999994	62.487803668695214	0	0	0
74	1	1	0.0	0.0	63.353829072479655	0	0	0
75	1	1	0.0	-0.49999999999999994	64.21985447626409	0	0	0
76	1	1	0.0	0.0	65.08587988004852	0	0	0
77	1	1	0.0	-0.49999999999999994	65.95190528383296	0	0	0
78	1	1	0.0	0.0	66.81793068761739	0	0	0
79	1	1	0.0	-0.49999999999999994	67.68395609140183	0	0	0
80	1	1	0.0	0.0	68.54998149518626	0	0	0
81	1	1	0.0	-0.49999999999999994	69.41600689897069	0	0	0
82	1	1	0.0	0.0	70.28203230275513	0	0	0
83	1	1	0.0	-0.49999999999999994	71.14805770653956	0	0	0
84	1	1	0.0	0.0	72.014083110324	0	0	0
85	1	1	0.0	-0.49999999999999994	72.88010851410843	0	0	0
86	1	1	0.0	0.0	73.74613391789286	0	0	0
87	1	1	0.0	-0.49999999999999994	74.6121593216773	0	0	0
88	1	1	0.0	0.0	75.47818472546173	0	0	0
89	1	1	0.0	-0.49999999999999994	76.34421012924616	0	0	0
90	1	1	0.0	0.0	77.2102355330306	0	0	0
91	1	1	0.0	-0.49999999999999994	78.07626093681503	0	0	0
92	1	1	0.0	0.0	78.94228634059947	0	0	0
93	1	1	0.0	-0.49999999999999994	79.8083117443839	0	0	0
94	1	1	0.0	0.0	80.67433714816833	0	0	0
95	1	1	0.0	-0.49999999999999994	81.54036255195277	0	0	0
96	1	1	0.0	0.0	82.4063879557372	0	0	0
97	1	1	0.0	-0.49999999999999994	83.27241335952164	0	0	0
98	1	1	0.0	0.0	84.13843876330607	0	0	0
99	1	1	0.0	-0.49999999999999994	85.0044641670905	0	0	0
100	1	1	0.0	0.0	85.87048957087494	0	0	0
101	1	1	0.0	-0.49999999999999994	86.73651497465937	0	0	0
102	1	1	0.0	0.0	87.6025403784438	0	0	0
103	1	1	0.0	-0.49999999999999994	88.46856578222824	0	0	0
104	1	1	0.0	0.0	89.33459118601267	0	0	0
105	1	1	0.0	-0.49999999999999994	90.20061658979711	0	0	0
106	1	1	0.0	0.0	91.06664199358154	0	0	0
107	1	1	0.0	-0.49999999999999994	91.93266739736598	0	0	0
108	1	1	0.0	0.0	92.79869280115041	0	0	0
109	1	1	0.0	-0.49999999999999994	93.66471820493484	0	0	0
110	1	1	0.0	0.0	94.53074360871928	0	0	0
111	1	1	0.0	-0.49999999999999994	95.39676901250371	0	0	0
112	1	1	0.0	0.0	96.26279441628814	0	0	0
113	1	1	0.0	-0.49999999999999994	97.12881982007258	0	0	0
114	1	1	0.0	0.0	97.99484522385701	0	0	0
115	1	1	0.0	-0.49999999999999994	98.86087062764145	0	0	0
116	1	1	0.0	0.0	99.72689603142588	0	0	0
117	1	1	0.0	-0.49999999999999994	100.59292143521031	0	0	0
118	1	1	0.0	0.0	101.45894683899475	0	0	0
119	1	1	0.0	-0.49999999999999994	102.32497224277918	0	0	0
120	1	1	0.0	0.0	103.19099764656362	0	0	0
121	1	1	0.0	-0.49999999999999994	104.05702305034805	0	0	0
122	1	1	0.0	0.0	104.92304845413248	0	0	0
123	1	1	0.0	-0.49999999999999994	105.78907385791692	0	0	0
124	1	1	0.0	0.0	106.65509926170135	0	0	0
125	1	1	0.0	-0.49999999999999994	107.52112466548579	0	0	0
126	1	1	0.0	0.0	108.38715006927022	0	0	0
127	1	1	0.0	-0.49999999999999994	109.25317547305465	0	0	0
128	1	1	0.0	0.0	110.11920087683909	0	0	0
129	1	1	0.0	-0.49999999999999994	110.98522628062352	0	0	0
130	1	1	0.0	0.0	111.85125168440796	0	0	0
131	1	1	0.0	-0.49999999999999994	112.71727708819239	0	0	0
132	1	1	0.0	0.0	113.58330249197682	0	0	0
133	1	1	0.0	-0.49999999999999994	114.44932789576126	0	0	0
134	1	1	0.0	0.0	115.31535329954569	0	0	0
135	1	1	0.0	-0.49999999999999994	116.18137870333013	0	0	0
136	1	1	0.0	0.0	117.04740410711456	0	0	0
137	1	1	0.0	-0.49999999999999994	117.913429510899	0	0	0
138	1	1	0.0	0.0	118.77945491468343	0	0	0
139	1	1	0.0	-0.49999999999999994	119.64548031846786	0	0	0
140	1	1	0.0	0.0	120.5115057222523	0	0	0
141	1	1	0.0	-0.49999999999999994	121.37753112603673	0	0	0
142	1	1	0.0	0.0	122.24355652982116	0	0	0
143	1	1	0.0	-0.49999999999999994	123.1095819336056	0	0	0
144	1	1	0.0	0.0	123.97560733739003	0	0	0
145	1	1	0.0	-0.49999999999999994	124.84163274117446	0	0	0
146	1	1	0.0	0.0	125.7076581449589	0	0	0
147	1	1	0.0	-0.49999999999999994	126.57368354874333	0	0	0
148	1	1	0.0	0.0	127.43970895252777	0	0	0
149	1	1	0.0	-0.49999999999999994	128.3057343563122	0	0	0
150	1	1	0.0	0.0	129.17175976009665	0	0	0
151	1	1	0.0	-0.49999999999999994	130.0377851638811	0	0	0
152	1	1	0.0	0.0	130.90381056766554	0	0	0
153	1	1	0.0	-0.49999999999999994	131.76983597145	0	0	0
154	1	1	0.0	0.0	132.63586137523444	0	0	0
155	1	1	0.0	-0.49999999999999994	133.5018867790189	0	0	0
156	1	1	0.0	0.0	134.36791218280334	0	0	0
157	1	1	0.0	-0.49999999999999994	135.23393758658779	0	0	0
158	1	1	0.0	0.0	136.09996299037223	0	0	0
159	1	1	0.0	-0.49999999999999994	136.96598839415668	0	0	0
160	1	1	0.0	0.0	137.83201379794113	0	0	0
161	1	1	0.0	-0.49999999999999994	138.69803920172558	0	0	0
162	1	1	0.0	0.0	139.56406460551003	0	0	0
163	1	1	0.0	-0.49999999999999994	140.43009000929447	0	0	0
164	1	1	0.0	0.0	141.29611541307892	0	0	0
165	1	1	0.0	-0.49999999999999994	142.16214081686337	0	0	0
166	1	1	0.0	0.0	143.02816622064782	0	0	0
167	1	1	0.0	-0.49999999999999994	143.89419162443227	0	0	0
168	1	1	0.0	0.0	144.76021702821672	0	0	0
169	1	1	0.0	-0.49999999999999994	145.62624243200116	0	0	0
170	1	1	0.0	0.0	146.4922678357856	0	0	0
171	1	1	0.0	-0.49999999999999994	147.35829323957006	0	0	0
172	1	1	0.0	0.0	148.2243186433545	0	0	0
173	1	1	0.0	-0.49999999999999994	149.09034404713896	0	0	0
174	1	1	0.0	0.0	149.9563694509234	0	0	0
175	1	1	0.0	-0.49999999999999994	150.82239485470785	0	0	0
176	1	1	0.0	0.0	151.6884202584923	0	0	0
177	1	1	0.0	-0.49999999999999994	152.55444566227675	0	0	0
178	1	1	0.0	0.0	153.4204710660612	0	0	0
179	1	1	0.0	-0.49999999999999994	154.28649646984564	0	0	0
180	1	1	0.0	0.0	155.1525218736301	0	0	0
181	1	1	0.0	-0.49999999999999994	156.01854727741454	0	0	0
182	1	1	0.0	0.0	156.884572681199	0	0	0
183	1	1	0.0	-0.49999999999999994	157.75059808498344	0	0	0
184	1	1	0.0	0.0	158.61662348876789	0	0	0
185	1	1	0.0	-0.49999999999999994	159.48264889255233	0	0	0
186	1	1	0.0	0.0	160.34867429633678	0	0	0
187	1	1	0.0	-0.49999999999999994	161.21469970012123	0	0	0
188	1	1	0.0	0.0	162.08072510390568	0	0	0
189	1	1	0.0	-0.49999999999999994	162.94675050769013	0	0	0
190	1	1	0.0	0.0	163.81277591147457	0	0	0
191	1	1	0.0	-0.49999999999999994	164.67880131525902	0	0	0
192	1	1	0.0	0.0	165.54482671904347	0	0	0
193	1	1	0.0	-0.49999999999999994	166.41085212282792	0	0	0
194	1	1	0.0	0.0	167.27687752661237	0	0	0
195	1	1	0.0	-0.49999999999999994	168.14290293039682	0	0	0
196	1	1	0.0	0.0	169.00892833418126	0	0	0
197	1	1	0.0	-0.49999999999999994	169.8749537379657	0	0	0
198	1	1	0.0	0.0	170.74097914175016	0	0	0
199	1	1	0.0	-0.49999999999999994	171.6070045455346	0	0	0
200	1	1	0.0	0.0	172.47302994931906	0	0	0
201	1	1	0.0	-0.49999999999999994	173.3390553531035	0	0	0
202	1	1	0.0	0.0	174.20508075688795	0	0	0
203	1	1	0.0	-0.49999999999999994	175.0711061606724	0	0	0
204	1	1	0.0	0.0	175.93713156445685	0	0	0
205	1	1	0.0	-0.49999999999999994	176.8031569682413	0	0	0
206	1	1	0.0	0.0	177.66918237202574	0	0	0
207	1	1	0.0	-0.49999999999999994	178.5352077758102	0	0	0
208	1	1	0.0	0.0	179.40123317959464	0	0	0
209	1	1	0.0	-0.49999999999999994	180.2672585833791	0	0	0
210	1	1	0.0	0.0	181.13328398716354	0	0	0
211	1	1	0.0	-0.49999999999999994	181.99930939094799	0	0	0
212	1	1	0.0	0.0	182.86533479473243	0	0	0
213	1	1	0.0	-0.49999999999999994	183.73136019851688	0	0	0
214	1	1	0.0	0.0	184.59738560230133	0	0	0
215	1	1	0.0	-0.49999999999999994	185.46341100608578	0	0	0
216	1	1	0.0	0.0	186.32943640987023	0	0	0
217	1	1	0.0	-0.49999999999999994	187.19546181365467	0	0	0
218	1	1	0.0	0.0	188.06148721743912	0	0	0
219	1	1	0.0	-0.49999999999999994	188.92751262122357	0	0	0
220	1	1	0.0	0.0	189.79353802500802	0	0	0
221	1	1	0.0	-0.49999999999999994	190.65956342879247	0	0	0
222	1	1	0.0	0.0	191.52558883257691	0	0	0
223	1	1	0.0	-0.49999999999999994	192.39161423636136	0	0	0
224	1	1	0.0	0.0	193.2576396401458	0	0	0
225	1	1	0.0	-0.49999999999999994	194.12366504393026	0	0	0
226	1	1	0.0	0.0	194.9896904477147	0	0	0
227	1	1	0.0	-0.49999999999999994	195.85571585149916	0	0	0
228	1	1	0.0	0.0	196.7217412552836	0	0	0
229	1	1	0.0	-0.49999999999999994	197.58776665906805	0	0	0
230	1	1	0.0	0.0	198.4537920628525	0	0	0
231	1	1	0.0	-0.49999999999999994	199.31981746663695	0	0	0
232	1	1	0.0	0.0	200.1858428704214	0	0	0
233	1	1	0.0	-0.49999999999999994	201.05186827420584	0	0	0
234	1	1	0.0	0.0	201.9178936779903	0	0	0
235	1	1	0.0	-0.49999999999999994	202.78391908177474	0	0	0
236	1	1	0.0	0.0	203.6499444855592	0	0	0
237	1	1	0.0	-0.49999999999999994	204.51596988934364	0	0	0
238	1	1	0.0	0.0	205.38199529312809	0	0	0
239	1	1	0.0	-0.49999999999999994	206.24802069691253	0	0	0
240	1	1	0.0	0.0	207.11404610069698	0	0	0
241	1	1	0.0	-0.49999999999999994	207.98007150448143	0	0	0
242	1	1	0.0	0.0	208.84609690826588	0	0	0
243	1	1	0.0	-0.49999999999999994	209.71212231205033	0	0	0
244	1	1	0.0	0.0	210.57814771583477	0	0	0
245	1	1	0.0	-0.49999999999999994	211.44417311961922	0	0	0
246	1	1	0.0	0.0	212.31019852340367	0	0	0
247	1	1	0.0	-0.49999999999999994	213.17622392718812	0	0	0
248	1	1	0.0	0.0	214.04224933097257	0	0	0
249	1	1	0.0	-0.49999999999999994	214.90827473475701	0	0	0
250	1	1	0.0	0.0	215.77430013854146	0	0	0
251	1	1	0.0	-0.49999999999999994	216.6403255423259	0	0	0
252	1	1	-0.14862657535032942	0.13923696843490768	217.39483613819968	0	0	0
253	1	1	-0.2972531507006576	0.3155771242008004	218.36787996586835	0	0	0
254	1	1	-0.4458797260509858	1.2464278758404612	218.70168682510212	0	0	0
255	1	1	-0.594506301401314	1.422768031606354	219.6747306527708	0	0	0
256	1	1	-0.7431328767516422	2.3536187832460147	220.00853751200455	0	0	0
257	1	1	-0.8917594521019704	2.5299589390119075	220.98158133967323	0	0	0
258	1	1	-1.0403860274522985	3.460809690651568	221.315388198907	0	0	0
259	1	1	-1.1890126028026267	3.637149846417461	222.28843202657566	0	0	0
260	1	1	-1.3376391781529549	4.568000598057122	222.62223888580942	0	0	0
261	1	1	-1.486265753503283	4.744340753823014	223.5952827134781	0	0	0
262	1	1	-1.6348923288536112	5.675191505462675	223.92908957271186	0	0	0
263	1	1	-1.7835189042039394	5.8515316612285675	224.90213340038054	0	0	0
264	1	1	-1.9321454795542676	6.782382412868229	225.2359402596143	0	0	0
265	1	1	-2.080772054904596	6.958722568634121	226.20898408728297	0	0	0
266	1	1	-2.229398630254924	7.889573320273782	226.54279094651673	0	0	0
267	1	1	-2.378025205605252	8.065913476039675	227.5158347741854	0	0	0
268	1	1	-2.52665178095558	8.996764227679336	227.84964163341917	0	0	0
269	1	1	-2.675278356305908	9.173104383445228	228.82268546108784	0	0	0
270	1	1	-2.823904931656236	10.103955135084888	229.1564923203216	0	0	0
271	1	1	-2.972531507006564	10.28029529085078	230.12953614799028	0	0	0
272	1	1	-3.121158082356892	11.21114604249044	230.46334300722404	0	0	0
273	1	1	-3.26978465770722	11.387486198256333	231.43638683489272	0	0	0
274	1	1	-3.418411233057548	12.318336949895993	231.77019369412648	0	0	0
275	1	1	-3.5670378084078758	12.494677105661886	232.74323752179515	0	0	0
276	1	1	-3.7156643837582037	13.425527857301546	233.0770443810289	0	0	0
277	1	1	-3.8642909591085317	13.601868013067438	234.0500882086976	0	0	0
278	1	1	-4.01291753445886	14.532718764707099	234.38389506793135	0	0	0
279	1	1	-4.1615441098091885	14.709058920472991	235.35693889560002	0	0	0
280	1	1	-4.310170685159517	15.639909672112651	235.69074575483378	0	0	0
281	1	1	-4.458797260509845	15.816249827878543	236.66378958250246	0	0	0
282	1	1	-4.607423835860174	16.747100579518204	236.99759644173622	0	0	0
283	1	1	-4.756050411210502	16.923440735284096	237.9706402694049	0	0	0
284	1	1	-4.904676986560831	17.854291486923756	238.30444712863866	0	0	0
285	1	1	-5.053303561911159	18.03063164268965	239.27749095630733	0	0	0
286	1	1	-5.2019301372614875	18.96148239432931	239.6112978155411	0	0	0
287	1	1	-5.350556712611816	19.1378225500952	240.58434164320977	0	0	0
288	1	1	-5.499183287962144	20.06867330173486	240.91814850244353	0	0	0
289	1	1	-5.647809863312473	20.245013457500754	241.8911923301122	0	0	0
290	1	1	-5.796436438662801	21.175864209140414	242.22499918934597	0	0	0
291	1	1	-5.9450630140131295	21.352204364906306	243.19804301701464	0	0	0
292	1	1	-6.093689589363458	22.283055116545967	243.5318498762484	0	0	0
293	1	1	-6.242316164713786	22.45939527231186	244.50489370391708	0	0	0
294	1	1	-6.390942740064115	23.39024602395152	244.83870056315084	0	0	0
295	1	1	-6.539569315414443	23.56658617971741	245.8117443908195	0	0	0
296	1	1	-6.688195890764772	24.497436931357072	246.14555125005327	0	0	0
297	1	1	-6.8368224661151	24.673777087122964	247.11859507772195	0	0	0
298	1	1	-6.985449041465428	25.604627838762624	247.4524019369557	0	0	0
299	1	1	-7.134075616815757	25.780967994528517	248.42544576462438	0	0	0
300	1	1	-7.282702192166085	26.711818746168177	248.75925262385815	0	0	0
301	1	1	-7.431328767516414	26.88815890193407	249.73229645152682	0	0	0
302	1	1	-7.579955342866742	27.81900965357373	250.06610331076058	0	0	0
303	1	1	-7.7285819182170705	27.995349809339622	251.03914713842926	0	0	0
304	1	1	-7.877208493567399	28.926200560979282	251.37295399766302	0	0	0
305	1	1	-8.025835068917727	29.102540716745175	252.3459978253317	0	0	0
306	1	1	-8.174461644268055	30.033391468384835	252.67980468456545	0	0	0
307	1	1	-8.323088219618382	30.209731624150727	253.65284851223413	0	0	0
308	1	1	-8.47171479496871	31.140582375790387	253.9866553714679	0	0	0
309	1	1	-8.620341370319037	31.31692253155628	254.95969919913657	0	0	0
310	1	1	-8.768967945669365	32.24777328319594	255.29350605837033	0	0	0
311	1	1	-8.917594521019693	32.42411343896183	256.266549886039	0	0	0
312	1	1	-9.06622109637002	33.35496419060149	256.6003567452728	0	0	0
313	1	1	-9.214847671720348	33.531304346367385	257.57340057294147	0	0	0
314	1	1	-9.363474247070675	34.462155098007045	257.90720743217526	0	0	0
315	1	1	-9.512100822421003	34.63849525377294	258.88025125984393	0	0	0
316	1	1	-9.66072739777133	35.5693460054126	259.2140581190777	0	0	0
317	1	1	-9.809353973121658	35.74568616117849	260.1871019467464	0	0	0
318	1	1	-9.957980548471985	36.67653691281815	260.5209088059802	0	0	0
319	1	1	-10.106607123822313	36.85287706858404	261.49395263364886	0	0	0
320	1	1	-10.25523369917264	37.7837278202237	261.82775949288265	0	0	0
321	1	1	-10.403860274522968	37.960067975989595	262.8008033205513	0	0	0
322	1	1	-10.552486849873295	38.890918727629256	263.1346101797851	0	0	0
323	1	1	-10.701113425223623	39.06725888339515	264.1076540074538	0	0	0
324	1	1	-10.84974000057395	39.99810963503481	264.4414608666876	0	0	0
325	1	1	-10.998366575924278	40.1744497908007	265.41450469435625	0	0	0
326	1	1	-11.146993151274605	41.10530054244036	265.74831155359004	0	0	0
327	1	1	-11.295619726624933	41.28164069820625	266.7213553812587	0	0	0
328	1	1	-11.44424630197526	42.21249144984591	267.0551622404925	0	0	0
329	1	1	-11.592872877325588	42.388831605611806	268.0282060681612	0	0	0
330	1	1	-11.741499452675916	43.319682357251466	268.36201292739497	0	0	0
331	1	1	-11.890126028026243	43.49602251301736	269.33505675506365	0	0	0
332	1	1	-12.03875260337657	44.42687326465702	269.66886361429744	0	0	0
333	1	1	-12.187379178726898	44.60321342042291	270.6419074419661	0	0	0
334	1	1	-12.336005754077226	45.53406417206257	270.9757143011999	0	0	0
335	1	1	-12.484632329427553	45.71040432782846	271.9487581288686	0	0	0
336	1	1	-12.63325890477788	46.641255079468124	272.28256498810237	0	0	0
337	1	1	-12.781885480128208	46.817595235234016	273.25560881577104	0	0	0
338	1	1	-12.930512055478536	47.748445986873676	273.58941567500483	0	0	0
339	1	1	-13.079138630828863	47.92478614263957	274.5624595026735	0	0	0
340	1	1	-13.22776520617919	48.85563689427923	274.8962663619073	0	0	0
341	1	1	-13.376391781529518	49.03197705004512	275.86931018957597	0	0	0
342	1	1	-13.525018356879846	49.96282780168478	276.20311704880976	0	0	0
343	1	1	-13.673644932230173	50.139167957450674	277.17616087647843	0	0	0
344	1	1	-13.822271507580501	51.070018709090334	277.5099677357122	0	0	0
345	1	1	-13.970898082930828	51.24635886485623	278.4830115633809	0	0	0
346	1	1	-14.119524658281156	52.17720961649589	278.8168184226147	0	0	0
347	1	1	-14.268151233631484	52.35354977226178	279.78986225028336	0	0	0
348	1	1	-14.416777808981811	53.28440052390144	280.12366910951715	0	0	0
349	1	1	-14.565404384332139	53.46074067966733	281.0967129371858	0	0	0
350	1	1	-14.714030959682466	54.39159143130699	281.4305197964196	0	0	0
351	1	1	-14.862657535032794	54.567931587072884	282.4035636240883	0	0	0
352	1	1	-15.011284110383121	55.498782338712545	282.7373704833221	0	0	0
353	1	1	-15.159910685733449	55.67512249447844	283.71041431099076	0	0	0
354	1	1	-15.308537261083776	56.6059732461181	284.04422117022455	0	0	0
355	1	1	-15.457163836434104	56.78231340188399	285.0172649978932	0	0	0
356	1	1	-15.605790411784431	57.71316415352365	285.351071857127	0	0	0
357	1	1	-15.754416987134759	57.88950430928954	286.3241156847957	0	0	0
358	1	1	-15.903043562485086	58.8203550609292	286.6579225440295	0	0	0
359	1	1	-16.051670137835416	58.996695216695095	287.63096637169815	0	0	0
360	1	1	-16.200296713185743	59.927545968334755	287.96477323093194	0	0	0
361	1	1	-16.34892328853607	60.10388612410065	288.9378170586006	0	0	0
362	1	1	-16.497549863886398	61.03473687574031	289.2716239178344	0	0	0
363	1	1	-16.646176439236726	61.2110770315062	290.2446677455031	0	0	0
364	1	1	-16.794803014587053	62.14192778314586	290.57847460473687	0	0	0
365	1	1	-16.94342958993738	62.31826793891175	291.55151843240554	0	0	0
366	1	1	-17.09205616528771	63.24911869055141	291.88532529163933	0	0	0
367	1	1	-17.240682740638036	63.425458846317305	292.858369119308	0	0	0
368	1	1	-17.389309315988363	64.35630959795697	293.1921759785418	0	0	0
369	1	1	-17.53793589133869	64.53264975372286	294.1652198062105	0	0	0
370	1	1	-17.68656246668902	65.46350050536253	294.49902666544426	0	0	0
371	1	1	-17.835189042039346	65.63984066112843	295.47207049311294	0	0	0
372	1	1	-17.983815617389673	66.5706914127681	295.8058773523467	0	0	0
373	1	1	-18.13244219274	66.747031568534	296.7789211800154	0	0	0
374	1	1	-18.28106876809033	67.67788232017367	297.1127280392492	0	0	0
375	1	1	-18.429695343440656	67.85422247593957	298.08577186691787	0	0	0
376	1	1	-18.578321918790984	68.78507322757923	298.41957872615166	0	0	0
377	1	1	-18.72694849414131	68.96141338334513	299.39262255382033	0	0	0
378	1	1	-18.87557506949164	69.8922641349848	299.7264294130541	0	0	0
379	1	1	-19.024201644841966	70.0686042907507	300.6994732407228	0	0	0
380	1	1	-19.172828220192294	70.99945504239037	301.0332800999566	0	0	0
381	1	1	-19.32145479554262	71.17579519815627	302.00632392762526	0	0	0
382	1	1	-19.47008137089295	72.10664594979593	302.34013078685905	0	0	0
383	1	1	-19.618707946243276	72.28298610556183	303.3131746145277	0	0	0
384	1	1	-19.767334521593604	73.2138368572015	303.6469814737615	0	0	0
385	1	1	-19.91596109694393	73.3901770129674	304.6200253014302	0	0	0
386	1	1	-20.06458767229426	74.32102776460707	304.953832160664	0	0	0
387	1	1	-20.213214247644586	74.49736792037297	305.92687598833265	0	0	0
388	1	1	-20.361840822994914	75.42821867201263	306.26068284756644	0	0	0
389	1	1	-20.51046739834524	75.60455882777853	307.2337266752351	0	0	0
390	1	1	-20.65909397369557	76.5354095794182	307.5675335344689	0	0	0
391	1	1	-20.807720549045897	76.7117497351841	308.5405773621376	0	0	0
392	1	1	-20.956347124396224	77.64260048682377	308.8743842213714	0	0	0
393	1	1	-21.10497369974655	77.81894064258967	309.84742804904005	0	0	0
394	1	1	-21.25360027509688	78.74979139422933	310.18123490827384	0	0	0
395	1	1	-21.402226850447207	78.92613154999523	311.1542787359425	0	0	0
396	1	1	-21.550853425797534	79.8569823016349	311.4880855951763	0	0	0
397	1	1	-21.69948000114786	80.0333224574008	312.461129422845	0	0	0
398	1	1	-21.84810657649819	80.96417320904047	312.79493628207877	0	0	0
399	1	1	-21.996733151848517	81.14051336480637	313.76798010974744	0	0	0
400	1	1	-22.145359727198844	82.07136411644603	314.10178696898123	0	0	0
401	1	1	-22.293986302549172	82.24770427221193	315.0748307966499	0	0	0
402	1	1	-22.4426128778995	83.1785550238516	315.4086376558837	0	0	0
403	1	1	-22.591239453249827	83.3548951796175	316.38168148355237	0	0	0
404	1	1	-22.739866028600154	84.28574593125717	316.71548834278616	0	0	0
405	1	1	-22.888492603950482	84.46208608702307	317.68853217045483	0	0	0
406	1	1	-23.03711917930081	85.39293683866273	318.0223390296886	0	0	0
407	1	1	-23.185745754651137	85.56927699442863	318.9953828573573	0	0	0
408	1	1	-23.334372330001464	86.5001277460683	319.3291897165911	0	0	0
409	1	1	-23.482998905351792	86.6764679018342	320.30223354425976	0	0	0
410	1	1	-23.63162548070212	87.60731865347387	320.63604040349355	0	0	0
411	1	1	-23.780252056052447	87.78365880923977	321.6090842311622	0	0	0
412	1	1	-23.928878631402775	88.71450956087943	321.942891090396	0	0	0
413	1	1	-24.077505206753102	88.89084971664533	322.9159349180647	0	0	0
414	1	1	-24.22613178210343	89.821700468285	323.2497417772985	0	0	0
415	1	1	-24.374758357453757	89.9980406240509	324.22278560496716	0	0	0
416	1	1	-24.523384932804085	90.92889137569057	324.55659246420095	0	0	0
417	1	1	-24.672011508154412	91.10523153145647	325.5296362918696	0	0	0
418	1	1	-24.82063808350474	92.03608228309614	325.8634431511034	0	0	0
419	1	1	-24.969264658855067	92.21242243886203	326.8364869787721	0	0	0
420	1	1	-25.117891234205395	93.1432731905017	327.1702938380059	0	0	0
421	1	1	-25.266517809555722	93.3196133462676	328.14333766567455	0	0	0
422	1	1	-25.41514438490605	94.25046409790727	328.47714452490834	0	0	0
423	1	1	-25.563770960256377	94.42680425367317	329.450188352577	0	0	0
424	1	1	-25.712397535606705	95.35765500531284	329.7839952118108	0	0	0
425	1	1	-25.861024110957032	95.53399516107874	330.7570390394795	0	0	0
426	1	1	-26.00965068630736	96.4648459127184	331.09084589871327	0	0	0
427	1	1	-26.158277261657688	96.6411860684843	332.06388972638194	0	0	0
428	1	1	-26.306903837008015	97.57203682012397	332.39769658561573	0	0	0
429	1	1	-26.455530412358343	97.74837697588987	333.3707404132844	0	0	0
430	1	1	-26.60415698770867	98.67922772752954	333.7045472725182	0	0	0
431	1	1	-26.752783563058998	98.85556788329544	334.6775911001869	0	0	0
432	1	1	-26.901410138409325	99.7864186349351	335.01139795942066	0	0	0
433	1	1	-27.050036713759653	99.962758790701	335.98444178708934	0	0	0
434	1	1	-27.19866328910998	100.89360954234067	336.3182486463231	0	0	0
435	1	1	-27.347289864460308	101.06994969810657	337.2912924739918	0	0	0
436	1	1	-27.495916439810635	102.00080044974624	337.6250993332256	0	0	0
437	1	1	-27.644543015160963	102.17714060551214	338.59814316089427	0	0	0
438	1	1	-27.79316959051129	103.1079913571518	338.93195002012806	0	0	0
439	1	1	-27.941796165861618	103.2843315129177	339.90499384779673	0	0	0
440	1	1	-28.090422741211945	104.21518226455737	340.2388007070305	0	0	0
441	1	1	-28.239049316562273	104.39152242032327	341.2118445346992	0	0	0
442	1	1	-28.3876758919126	105.32237317196294	341.545651393933	0	0	0
443	1	1	-28.536302467262928	105.49871332772884	342.51869522160166	0	0	0
444	1	1	-28.684929042613255	106.4295640793685	342.85250208083545	0	0	0
445	1	1	-28.833555617963583	106.6059042351344	343.8255459085041	0	0	0
446	1	1	-28.98218219331391	107.53675498677407	344.1593527677379	0	0	0
447	1	1	-29.130808768664238	107.71309514253997	345.1323965954066	0	0	0
448	1	1	-29.279435344014566	108.64394589417964	345.4662034546404	0	0	0
449	1	1	-29.428061919364893	108.82028604994554	346.43924728230905	0	0	0
450	1	1	-29.57668849471522	109.7511368015852	346.77305414154284	0	0	0
451	1	1	-29.725315070065548	109.9274769573511	347.7460979692115	0	0	0
452	1	1	-29.873941645415876	110.85832770899077	348.0799048284453	0	0	0
453	1	1	-30.022568220766203	111.03466786475667	349.052948656114	0	0	0
454	1	1	-30.17119479611653	111.96551861639634	349.3867555153478	0	0	0
455	1	1	-30.31982137146686	112.14185877216224	350.35979934301645	0	0	0
456	1	1	-30.468447946817186	113.0727095238019	350.69360620225024	0	0	0
457	1	1	-30.617074522167513	113.2490496795678	351.6666500299189	0	0	0
458	1	1	-30.76570109751784	114.17990043120747	352.0004568891527	0	0	0
459	1	1	-30.91432767286817	114.35624058697337	352.9735007168214	0	0	0
460	1	1	-31.062954248218496	115.28709133861304	353.30730757605517	0	0	0
461	1	1	-31.211580823568823	115.46343149437894	354.28035140372384	0	0	0
462	1	1	-31.36020739891915	116.3942822460186	354.61415826295763	0	0	0
463	1	1	-31.50883397426948	116.5706224017845	355.5872020906263	0	0	0
464	1	1	-31.657460549619806	117.50147315342417	355.9210089498601	0	0	0
465	1	1	-31.806087124970134	117.67781330919007	356.89405277752877	0	0	0
466	1	1	-31.95471370032046	118.60866406082974	357.22785963676256	0	0	0
467	1	1	-32.10334027567079	118.78500421659564	358.20090346443124	0	0	0
468	1	1	-32.251966851021116	119.7158549682353	358.534710323665	0	0	0
469	1	1	-32.400593426371444	119.8921951240012	359.5077541513337	0	0	0
470	1	1	-32.54922000172177	120.82304587564087	359.8415610105675	0	0	0
471	1	1	-32.6978465770721	120.99938603140677	360.81460483823616	0	0	0
472	1	1	-32.846473152422426	121.93023678304644	361.14841169746995	0	0	0
473	1	1	-32.995099727772754	122.10657693881234	362.12145552513863	0	0	0
474	1	1	-33.14372630312308	123.037427690452	362.4552623843724	0	0	0
475	1	1	-33.29235287847341	123.2137678462179	363.4283062120411	0	0	0
476	1	1	-33.440979453823736	124.14461859785757	363.7621130712749	0	0	0
477	1	1	-33.589606029174064	124.32095875362347	364.73515689894356	0	0	0
478	1	1	-33.73823260452439	125.25180950526314	365.06896375817735	0	0	0
479	1	1	-33.88685917987472	125.42814966102904	366.042007585846	0	0	0
480	1	1	-34.03548575522505	126.3590004126687	366.3758144450798	0	0	0
481	1	1	-34.184112330575374	126.5353405684346	367.3488582727485	0	0	0
482	1	1	-34.3327389059257	127.46619132007427	367.6826651319823	0	0	0
483	1	1	-34.48136548127603	127.64253147584017	368.65570895965095	0	0	0
484	1	1	-34.62999205662636	128.57338222747984	368.98951581888474	0	0	0
485	1	1	-34.778618631976684	128.74972238324574	369.9625596465534	0	0	0
486	1	1	-34.92724520732701	129.6805731348854	370.2963665057872	0	0	0
487	1	1	-35.07587178267734	129.8569132906513	371.2694103334559	0	0	0
488	1	1	-35.22449835802767	130.78776404229097	371.60321719268967	0	0	0
489	1	1	-35.373124933377994	130.96410419805687	372.57626102035834	0	0	0
490	1	1	-35.52175150872832	131.89495494969654	372.91006787959213	0	0	0
491	1	1	-35.67037808407865	132.07129510546244	373.8831117072608	0	0	0
492	1	1	-35.81900465942898	133.0021458571021	374.2169185664946	0	0	0
493	1	1	-35.967631234779304	133.178486012868	375.1899623941633	0	0	0
494	1	1	-36.11625781012963	134.10933676450767	375.52376925339706	0	0	0
495	1	1	-36.26488438547996	134.28567692027357	376.49681308106574	0	0	0
496	1	1	-36.41351096083029	135.21652767191324	376.8306199402995	0	0	0
497	1	1	-36.562137536180614	135.39286782767914	377.8036637679682	0	0	0
498	1	1	-36.71076411153094	136.3237185793188	378.137470627202	0	0	0
499	1	1	-36.85939068688127	136.5000587350847	379.11051445487067	0	0	0
500	1	1	-37.0080172622316	137.43090948672437	379.44432131410446	0	0	0
501	1	1	-37.156643837581925	137.60724964249027	380.41736514177313	0	0	0
502	1	1	0.8804536857269498	-0.9585036971300476	216.76105526943536	0	0	0