bb51nuc1bl25bn4d30tot100

101 atoms
100 bonds
102 angles

1 atom types
1 bond types
1 angle types

-1000 1000 xlo xhi
-1000 1000 ylo yhi
-1000 1000 zlo zhi

Masses

1 1

Atoms

1	1	1	0.0	0.0	0.0	0	0	0
2	1	1	0.0	0.0	1.0	0	0	0
3	1	1	0.0	-0.49999999999999994	1.8660254037844388	0	0	0
4	1	1	0.0	0.0	2.7320508075688776	0	0	0
5	1	1	0.0	-0.49999999999999994	3.5980762113533165	0	0	0
6	1	1	0.0	0.0	4.464101615137755	0	0	0
7	1	1	0.0	-0.49999999999999994	5.330127018922194	0	0	0
8	1	1	0.0	0.0	6.196152422706632	0	0	0
9	1	1	0.0	-0.49999999999999994	7.06217782649107	0	0	0
10	1	1	0.0	0.0	7.928203230275509	0	0	0
11	1	1	0.0	-0.49999999999999994	8.794228634059948	0	0	0
12	1	1	0.0	0.0	9.660254037844387	0	0	0
13	1	1	0.0	-0.49999999999999994	10.526279441628827	0	0	0
14	1	1	0.0	0.0	11.392304845413266	0	0	0
15	1	1	0.0	-0.49999999999999994	12.258330249197705	0	0	0
16	1	1	0.0	0.0	13.124355652982144	0	0	0
17	1	1	0.0	-0.49999999999999994	13.990381056766584	0	0	0
18	1	1	0.0	0.0	14.856406460551023	0	0	0
19	1	1	0.0	-0.49999999999999994	15.722431864335462	0	0	0
20	1	1	0.0	0.0	16.5884572681199	0	0	0
21	1	1	0.0	-0.49999999999999994	17.454482671904337	0	0	0
22	1	1	0.0	0.0	18.320508075688775	0	0	0
23	1	1	0.0	-0.49999999999999994	19.186533479473212	0	0	0
24	1	1	0.0	0.0	20.05255888325765	0	0	0
25	1	1	0.0	-0.49999999999999994	20.918584287042087	0	0	0
26	1	1	0.0	0.0	21.784609690826525	0	0	0
27	1	1	-0.8933242629378287	-0.09368927266255622	22.224148177690353	0	0	0
28	1	1	-1.7866485258756581	-0.39459580628233165	22.557955036924124	0	0	0
29	1	1	-2.6799727888134877	-0.2559638530382776	22.98545116882045	0	0	0
30	1	1	-3.573297051751317	-0.5568703866580531	23.31925802805422	0	0	0
31	1	1	-4.466621314689147	-0.4182384334139991	23.746754159950548	0	0	0
32	1	1	-5.359945577626976	-0.7191449670337745	24.08056101918432	0	0	0
33	1	1	-6.253269840564806	-0.5805130137897205	24.508057151080646	0	0	0
34	1	1	-7.146594103502635	-0.8814195474094959	24.841864010314417	0	0	0
35	1	1	-8.039918366440464	-0.7427875941654418	25.269360142210743	0	0	0
36	1	1	-8.933242629378293	-1.0436941277852172	25.603167001444515	0	0	0
37	1	1	-9.826566892316123	-0.9050621745411631	26.03066313334084	0	0	0
38	1	1	-10.719891155253952	-1.2059687081609385	26.364469992574612	0	0	0
39	1	1	-11.613215418191782	-1.0673367549168844	26.79196612447094	0	0	0
40	1	1	-12.506539681129611	-1.3682432885366598	27.12577298370471	0	0	0
41	1	1	-13.399863944067441	-1.2296113352926057	27.553269115601037	0	0	0
42	1	1	-14.29318820700527	-1.530517868912381	27.887075974834808	0	0	0
43	1	1	-15.1865124699431	-1.391885915668327	28.314572106731134	0	0	0
44	1	1	-16.079836732880928	-1.6927924492881024	28.648378965964906	0	0	0
45	1	1	-16.97316099581876	-1.5541604960440483	29.075875097861232	0	0	0
46	1	1	-17.86648525875659	-1.8550670296638236	29.409681957095003	0	0	0
47	1	1	-18.75980952169442	-1.7164350764197696	29.83717808899133	0	0	0
48	1	1	-19.653133784632253	-2.017341610039545	30.1709849482251	0	0	0
49	1	1	-20.546458047570084	-1.878709656795491	30.598481080121427	0	0	0
50	1	1	-21.439782310507915	-2.1796161904152664	30.9322879393552	0	0	0
51	1	1	-22.333106573445747	-2.0409842371712124	31.359784071251525	0	0	0
52	1	1	0.18606942918947036	0.9671929779599779	21.611647524714936	0	0	0
53	1	1	0.3721388583789409	1.8912877502910361	21.945454383948707	0	0	0
54	1	1	0.5582082875684115	2.6424203565105064	21.3120682652225	0	0	0
55	1	1	0.744277716757882	3.566515128841565	21.64587512445627	0	0	0
56	1	1	0.9303471459473526	4.317647735061035	21.012489005730064	0	0	0
57	1	1	1.1164165751368231	5.241742507392093	21.346295864963835	0	0	0
58	1	1	1.3024860043262936	5.992875113611563	20.712909746237628	0	0	0
59	1	1	1.488555433515764	6.916969885942621	21.0467166054714	0	0	0
60	1	1	1.6746248627052345	7.668102492162092	20.413330486745192	0	0	0
61	1	1	1.860694291894705	8.59219726449315	20.747137345978963	0	0	0
62	1	1	2.0467637210841754	9.34332987071262	20.113751227252756	0	0	0
63	1	1	2.232833150273646	10.267424643043677	20.447558086486527	0	0	0
64	1	1	2.4189025794631163	11.018557249263147	19.81417196776032	0	0	0
65	1	1	2.6049720086525867	11.942652021594204	20.14797882699409	0	0	0
66	1	1	2.791041437842057	12.693784627813674	19.514592708267884	0	0	0
67	1	1	2.9771108670315276	13.617879400144732	19.848399567501655	0	0	0
68	1	1	3.163180296220998	14.369012006364201	19.215013448775448	0	0	0
69	1	1	3.3492497254104685	15.29310677869526	19.54882030800922	0	0	0
70	1	1	3.535319154599939	16.04423938491473	18.915434189283012	0	0	0
71	1	1	3.7213885837894094	16.96833415724579	19.249241048516783	0	0	0
72	1	1	3.90745801297888	17.71946676346526	18.615854929790576	0	0	0
73	1	1	4.093527442168351	18.64356153579632	18.949661789024347	0	0	0
74	1	1	4.279596871357821	19.39469414201579	18.31627567029814	0	0	0
75	1	1	4.465666300547292	20.31878891434685	18.65008252953191	0	0	0
76	1	1	4.651735729736762	21.06992152056632	18.016696410805704	0	0	0
77	1	1	0.7072548337483592	-0.3727934164467621	22.385289030236105	0	0	0
78	1	1	1.414509667496719	-0.9959816551580405	22.719095889469877	0	0	0
79	1	1	2.121764501245079	-1.018490554459738	23.42569616515041	0	0	0
80	1	1	2.829019334993439	-1.6416787931710164	23.75950302438418	0	0	0
81	1	1	3.536274168741799	-1.664187692472714	24.466103300064713	0	0	0
82	1	1	4.243529002490159	-2.287375931183992	24.799910159298484	0	0	0
83	1	1	4.950783836238519	-2.3098848304856894	25.506510434979017	0	0	0
84	1	1	5.658038669986879	-2.9330730691969675	25.840317294212788	0	0	0
85	1	1	6.365293503735239	-2.955581968498665	26.54691756989332	0	0	0
86	1	1	7.072548337483599	-3.578770207209943	26.880724429127092	0	0	0
87	1	1	7.779803171231959	-3.6012791065116403	27.587324704807624	0	0	0
88	1	1	8.487058004980318	-4.2244673452229184	27.921131564041396	0	0	0
89	1	1	9.194312838728678	-4.246976244524616	28.62773183972193	0	0	0
90	1	1	9.901567672477038	-4.870164483235894	28.9615386989557	0	0	0
91	1	1	10.608822506225398	-4.892673382537591	29.668138974636232	0	0	0
92	1	1	11.316077339973758	-5.515861621248869	30.001945833870003	0	0	0
93	1	1	12.023332173722117	-5.538370520550567	30.708546109550536	0	0	0
94	1	1	12.730587007470477	-6.161558759261845	31.042352968784307	0	0	0
95	1	1	13.437841841218837	-6.184067658563542	31.74895324446484	0	0	0
96	1	1	14.145096674967197	-6.80725589727482	32.08276010369861	0	0	0
97	1	1	14.852351508715557	-6.829764796576518	32.78936037937915	0	0	0
98	1	1	15.559606342463917	-7.452953035287796	33.123167238612915	0	0	0
99	1	1	16.266861176212277	-7.475461934589493	33.82976751429345	0	0	0
100	1	1	16.974116009960635	-8.098650173300772	34.16357437352722	0	0	0
101	1	1	17.681370843708994	-8.12115907260247	34.870174649207755	0	0	0

Bonds

1	1	1	2
2	1	2	3
3	1	3	4
4	1	4	5
5	1	5	6
6	1	6	7
7	1	7	8
8	1	8	9
9	1	9	10
10	1	10	11
11	1	11	12
12	1	12	13
13	1	13	14
14	1	14	15
15	1	15	16
16	1	16	17
17	1	17	18
18	1	18	19
19	1	19	20
20	1	20	21
21	1	21	22
22	1	22	23
23	1	23	24
24	1	24	25
25	1	25	26
26	1	26	27
27	1	27	28
28	1	28	29
29	1	29	30
30	1	30	31
31	1	31	32
32	1	32	33
33	1	33	34
34	1	34	35
35	1	35	36
36	1	36	37
37	1	37	38
38	1	38	39
39	1	39	40
40	1	40	41
41	1	41	42
42	1	42	43
43	1	43	44
44	1	44	45
45	1	45	46
46	1	46	47
47	1	47	48
48	1	48	49
49	1	49	50
50	1	50	51
51	1	26	52
52	1	52	53
53	1	53	54
54	1	54	55
55	1	55	56
56	1	56	57
57	1	57	58
58	1	58	59
59	1	59	60
60	1	60	61
61	1	61	62
62	1	62	63
63	1	63	64
64	1	64	65
65	1	65	66
66	1	66	67
67	1	67	68
68	1	68	69
69	1	69	70
70	1	70	71
71	1	71	72
72	1	72	73
73	1	73	74
74	1	74	75
75	1	75	76
76	1	26	77
77	1	77	78
78	1	78	79
79	1	79	80
80	1	80	81
81	1	81	82
82	1	82	83
83	1	83	84
84	1	84	85
85	1	85	86
86	1	86	87
87	1	87	88
88	1	88	89
89	1	89	90
90	1	90	91
91	1	91	92
92	1	92	93
93	1	93	94
94	1	94	95
95	1	95	96
96	1	96	97
97	1	97	98
98	1	98	99
99	1	99	100
100	1	100	101

Angles

1	1	1	2	3
2	1	2	3	4
3	1	3	4	5
4	1	4	5	6
5	1	5	6	7
6	1	6	7	8
7	1	7	8	9
8	1	8	9	10
9	1	9	10	11
10	1	10	11	12
11	1	11	12	13
12	1	12	13	14
13	1	13	14	15
14	1	14	15	16
15	1	15	16	17
16	1	16	17	18
17	1	17	18	19
18	1	18	19	20
19	1	19	20	21
20	1	20	21	22
21	1	21	22	23
22	1	22	23	24
23	1	23	24	25
24	1	24	25	26
25	1	26	27	28
26	1	27	28	29
27	1	28	29	30
28	1	29	30	31
29	1	30	31	32
30	1	31	32	33
31	1	32	33	34
32	1	33	34	35
33	1	34	35	36
34	1	35	36	37
35	1	36	37	38
36	1	37	38	39
37	1	38	39	40
38	1	39	40	41
39	1	40	41	42
40	1	41	42	43
41	1	42	43	44
42	1	43	44	45
43	1	44	45	46
44	1	45	46	47
45	1	46	47	48
46	1	47	48	49
47	1	48	49	50
48	1	49	50	51
49	1	26	52	53
50	1	52	53	54
51	1	53	54	55
52	1	54	55	56
53	1	55	56	57
54	1	56	57	58
55	1	57	58	59
56	1	58	59	60
57	1	59	60	61
58	1	60	61	62
59	1	61	62	63
60	1	62	63	64
61	1	63	64	65
62	1	64	65	66
63	1	65	66	67
64	1	66	67	68
65	1	67	68	69
66	1	68	69	70
67	1	69	70	71
68	1	70	71	72
69	1	71	72	73
70	1	72	73	74
71	1	73	74	75
72	1	74	75	76
73	1	26	52	53
74	1	52	53	54
75	1	53	54	55
76	1	54	55	56
77	1	55	56	57
78	1	56	57	58
79	1	57	58	59
80	1	58	59	60
81	1	59	60	61
82	1	60	61	62
83	1	61	62	63
84	1	62	63	64
85	1	63	64	65
86	1	64	65	66
87	1	65	66	67
88	1	66	67	68
89	1	67	68	69
90	1	68	69	70
91	1	69	70	71
92	1	70	71	72
93	1	71	72	73
94	1	72	73	74
95	1	73	74	75
96	1	74	75	76
97	1	25	26	27
98	1	25	26	52
99	1	25	26	77
100	1	27	26	52
101	1	27	26	77
102	1	52	26	77
