bb551nuc1bl275bn4d30tot1100

1101 atoms
1100 bonds
1102 angles

1 atom types
1 bond types
1 angle types

-1000 1000 xlo xhi
-1000 1000 ylo yhi
-1000 1000 zlo zhi

Masses

1 1

Atoms

1	1	1	0.0	0.0	0.0	0	0	0
2	1	1	0.0	0.0	1.0	0	0	0
3	1	1	0.0	-0.49999999999999994	1.8660254037844388	0	0	0
4	1	1	0.0	0.0	2.7320508075688776	0	0	0
5	1	1	0.0	-0.49999999999999994	3.5980762113533165	0	0	0
6	1	1	0.0	0.0	4.464101615137755	0	0	0
7	1	1	0.0	-0.49999999999999994	5.330127018922194	0	0	0
8	1	1	0.0	0.0	6.196152422706632	0	0	0
9	1	1	0.0	-0.49999999999999994	7.06217782649107	0	0	0
10	1	1	0.0	0.0	7.928203230275509	0	0	0
11	1	1	0.0	-0.49999999999999994	8.794228634059948	0	0	0
12	1	1	0.0	0.0	9.660254037844387	0	0	0
13	1	1	0.0	-0.49999999999999994	10.526279441628827	0	0	0
14	1	1	0.0	0.0	11.392304845413266	0	0	0
15	1	1	0.0	-0.49999999999999994	12.258330249197705	0	0	0
16	1	1	0.0	0.0	13.124355652982144	0	0	0
17	1	1	0.0	-0.49999999999999994	13.990381056766584	0	0	0
18	1	1	0.0	0.0	14.856406460551023	0	0	0
19	1	1	0.0	-0.49999999999999994	15.722431864335462	0	0	0
20	1	1	0.0	0.0	16.5884572681199	0	0	0
21	1	1	0.0	-0.49999999999999994	17.454482671904337	0	0	0
22	1	1	0.0	0.0	18.320508075688775	0	0	0
23	1	1	0.0	-0.49999999999999994	19.186533479473212	0	0	0
24	1	1	0.0	0.0	20.05255888325765	0	0	0
25	1	1	0.0	-0.49999999999999994	20.918584287042087	0	0	0
26	1	1	0.0	0.0	21.784609690826525	0	0	0
27	1	1	0.0	-0.49999999999999994	22.650635094610962	0	0	0
28	1	1	0.0	0.0	23.5166604983954	0	0	0
29	1	1	0.0	-0.49999999999999994	24.382685902179837	0	0	0
30	1	1	0.0	0.0	25.248711305964274	0	0	0
31	1	1	0.0	-0.49999999999999994	26.114736709748712	0	0	0
32	1	1	0.0	0.0	26.98076211353315	0	0	0
33	1	1	0.0	-0.49999999999999994	27.846787517317587	0	0	0
34	1	1	0.0	0.0	28.712812921102024	0	0	0
35	1	1	0.0	-0.49999999999999994	29.578838324886462	0	0	0
36	1	1	0.0	0.0	30.4448637286709	0	0	0
37	1	1	0.0	-0.49999999999999994	31.310889132455337	0	0	0
38	1	1	0.0	0.0	32.17691453623978	0	0	0
39	1	1	0.0	-0.49999999999999994	33.04293994002422	0	0	0
40	1	1	0.0	0.0	33.90896534380866	0	0	0
41	1	1	0.0	-0.49999999999999994	34.7749907475931	0	0	0
42	1	1	0.0	0.0	35.64101615137754	0	0	0
43	1	1	0.0	-0.49999999999999994	36.50704155516198	0	0	0
44	1	1	0.0	0.0	37.373066958946424	0	0	0
45	1	1	0.0	-0.49999999999999994	38.239092362730865	0	0	0
46	1	1	0.0	0.0	39.105117766515306	0	0	0
47	1	1	0.0	-0.49999999999999994	39.97114317029975	0	0	0
48	1	1	0.0	0.0	40.83716857408419	0	0	0
49	1	1	0.0	-0.49999999999999994	41.70319397786863	0	0	0
50	1	1	0.0	0.0	42.56921938165307	0	0	0
51	1	1	0.0	-0.49999999999999994	43.43524478543751	0	0	0
52	1	1	0.0	0.0	44.30127018922195	0	0	0
53	1	1	0.0	-0.49999999999999994	45.16729559300639	0	0	0
54	1	1	0.0	0.0	46.033320996790835	0	0	0
55	1	1	0.0	-0.49999999999999994	46.899346400575276	0	0	0
56	1	1	0.0	0.0	47.76537180435972	0	0	0
57	1	1	0.0	-0.49999999999999994	48.63139720814416	0	0	0
58	1	1	0.0	0.0	49.4974226119286	0	0	0
59	1	1	0.0	-0.49999999999999994	50.36344801571304	0	0	0
60	1	1	0.0	0.0	51.22947341949748	0	0	0
61	1	1	0.0	-0.49999999999999994	52.09549882328192	0	0	0
62	1	1	0.0	0.0	52.96152422706636	0	0	0
63	1	1	0.0	-0.49999999999999994	53.827549630850804	0	0	0
64	1	1	0.0	0.0	54.693575034635245	0	0	0
65	1	1	0.0	-0.49999999999999994	55.559600438419686	0	0	0
66	1	1	0.0	0.0	56.42562584220413	0	0	0
67	1	1	0.0	-0.49999999999999994	57.29165124598857	0	0	0
68	1	1	0.0	0.0	58.15767664977301	0	0	0
69	1	1	0.0	-0.49999999999999994	59.02370205355745	0	0	0
70	1	1	0.0	0.0	59.88972745734189	0	0	0
71	1	1	0.0	-0.49999999999999994	60.75575286112633	0	0	0
72	1	1	0.0	0.0	61.62177826491077	0	0	0
73	1	1	0.0	-0.49999999999999994	62.487803668695214	0	0	0
74	1	1	0.0	0.0	63.353829072479655	0	0	0
75	1	1	0.0	-0.49999999999999994	64.21985447626409	0	0	0
76	1	1	0.0	0.0	65.08587988004852	0	0	0
77	1	1	0.0	-0.49999999999999994	65.95190528383296	0	0	0
78	1	1	0.0	0.0	66.81793068761739	0	0	0
79	1	1	0.0	-0.49999999999999994	67.68395609140183	0	0	0
80	1	1	0.0	0.0	68.54998149518626	0	0	0
81	1	1	0.0	-0.49999999999999994	69.41600689897069	0	0	0
82	1	1	0.0	0.0	70.28203230275513	0	0	0
83	1	1	0.0	-0.49999999999999994	71.14805770653956	0	0	0
84	1	1	0.0	0.0	72.014083110324	0	0	0
85	1	1	0.0	-0.49999999999999994	72.88010851410843	0	0	0
86	1	1	0.0	0.0	73.74613391789286	0	0	0
87	1	1	0.0	-0.49999999999999994	74.6121593216773	0	0	0
88	1	1	0.0	0.0	75.47818472546173	0	0	0
89	1	1	0.0	-0.49999999999999994	76.34421012924616	0	0	0
90	1	1	0.0	0.0	77.2102355330306	0	0	0
91	1	1	0.0	-0.49999999999999994	78.07626093681503	0	0	0
92	1	1	0.0	0.0	78.94228634059947	0	0	0
93	1	1	0.0	-0.49999999999999994	79.8083117443839	0	0	0
94	1	1	0.0	0.0	80.67433714816833	0	0	0
95	1	1	0.0	-0.49999999999999994	81.54036255195277	0	0	0
96	1	1	0.0	0.0	82.4063879557372	0	0	0
97	1	1	0.0	-0.49999999999999994	83.27241335952164	0	0	0
98	1	1	0.0	0.0	84.13843876330607	0	0	0
99	1	1	0.0	-0.49999999999999994	85.0044641670905	0	0	0
100	1	1	0.0	0.0	85.87048957087494	0	0	0
101	1	1	0.0	-0.49999999999999994	86.73651497465937	0	0	0
102	1	1	0.0	0.0	87.6025403784438	0	0	0
103	1	1	0.0	-0.49999999999999994	88.46856578222824	0	0	0
104	1	1	0.0	0.0	89.33459118601267	0	0	0
105	1	1	0.0	-0.49999999999999994	90.20061658979711	0	0	0
106	1	1	0.0	0.0	91.06664199358154	0	0	0
107	1	1	0.0	-0.49999999999999994	91.93266739736598	0	0	0
108	1	1	0.0	0.0	92.79869280115041	0	0	0
109	1	1	0.0	-0.49999999999999994	93.66471820493484	0	0	0
110	1	1	0.0	0.0	94.53074360871928	0	0	0
111	1	1	0.0	-0.49999999999999994	95.39676901250371	0	0	0
112	1	1	0.0	0.0	96.26279441628814	0	0	0
113	1	1	0.0	-0.49999999999999994	97.12881982007258	0	0	0
114	1	1	0.0	0.0	97.99484522385701	0	0	0
115	1	1	0.0	-0.49999999999999994	98.86087062764145	0	0	0
116	1	1	0.0	0.0	99.72689603142588	0	0	0
117	1	1	0.0	-0.49999999999999994	100.59292143521031	0	0	0
118	1	1	0.0	0.0	101.45894683899475	0	0	0
119	1	1	0.0	-0.49999999999999994	102.32497224277918	0	0	0
120	1	1	0.0	0.0	103.19099764656362	0	0	0
121	1	1	0.0	-0.49999999999999994	104.05702305034805	0	0	0
122	1	1	0.0	0.0	104.92304845413248	0	0	0
123	1	1	0.0	-0.49999999999999994	105.78907385791692	0	0	0
124	1	1	0.0	0.0	106.65509926170135	0	0	0
125	1	1	0.0	-0.49999999999999994	107.52112466548579	0	0	0
126	1	1	0.0	0.0	108.38715006927022	0	0	0
127	1	1	0.0	-0.49999999999999994	109.25317547305465	0	0	0
128	1	1	0.0	0.0	110.11920087683909	0	0	0
129	1	1	0.0	-0.49999999999999994	110.98522628062352	0	0	0
130	1	1	0.0	0.0	111.85125168440796	0	0	0
131	1	1	0.0	-0.49999999999999994	112.71727708819239	0	0	0
132	1	1	0.0	0.0	113.58330249197682	0	0	0
133	1	1	0.0	-0.49999999999999994	114.44932789576126	0	0	0
134	1	1	0.0	0.0	115.31535329954569	0	0	0
135	1	1	0.0	-0.49999999999999994	116.18137870333013	0	0	0
136	1	1	0.0	0.0	117.04740410711456	0	0	0
137	1	1	0.0	-0.49999999999999994	117.913429510899	0	0	0
138	1	1	0.0	0.0	118.77945491468343	0	0	0
139	1	1	0.0	-0.49999999999999994	119.64548031846786	0	0	0
140	1	1	0.0	0.0	120.5115057222523	0	0	0
141	1	1	0.0	-0.49999999999999994	121.37753112603673	0	0	0
142	1	1	0.0	0.0	122.24355652982116	0	0	0
143	1	1	0.0	-0.49999999999999994	123.1095819336056	0	0	0
144	1	1	0.0	0.0	123.97560733739003	0	0	0
145	1	1	0.0	-0.49999999999999994	124.84163274117446	0	0	0
146	1	1	0.0	0.0	125.7076581449589	0	0	0
147	1	1	0.0	-0.49999999999999994	126.57368354874333	0	0	0
148	1	1	0.0	0.0	127.43970895252777	0	0	0
149	1	1	0.0	-0.49999999999999994	128.3057343563122	0	0	0
150	1	1	0.0	0.0	129.17175976009665	0	0	0
151	1	1	0.0	-0.49999999999999994	130.0377851638811	0	0	0
152	1	1	0.0	0.0	130.90381056766554	0	0	0
153	1	1	0.0	-0.49999999999999994	131.76983597145	0	0	0
154	1	1	0.0	0.0	132.63586137523444	0	0	0
155	1	1	0.0	-0.49999999999999994	133.5018867790189	0	0	0
156	1	1	0.0	0.0	134.36791218280334	0	0	0
157	1	1	0.0	-0.49999999999999994	135.23393758658779	0	0	0
158	1	1	0.0	0.0	136.09996299037223	0	0	0
159	1	1	0.0	-0.49999999999999994	136.96598839415668	0	0	0
160	1	1	0.0	0.0	137.83201379794113	0	0	0
161	1	1	0.0	-0.49999999999999994	138.69803920172558	0	0	0
162	1	1	0.0	0.0	139.56406460551003	0	0	0
163	1	1	0.0	-0.49999999999999994	140.43009000929447	0	0	0
164	1	1	0.0	0.0	141.29611541307892	0	0	0
165	1	1	0.0	-0.49999999999999994	142.16214081686337	0	0	0
166	1	1	0.0	0.0	143.02816622064782	0	0	0
167	1	1	0.0	-0.49999999999999994	143.89419162443227	0	0	0
168	1	1	0.0	0.0	144.76021702821672	0	0	0
169	1	1	0.0	-0.49999999999999994	145.62624243200116	0	0	0
170	1	1	0.0	0.0	146.4922678357856	0	0	0
171	1	1	0.0	-0.49999999999999994	147.35829323957006	0	0	0
172	1	1	0.0	0.0	148.2243186433545	0	0	0
173	1	1	0.0	-0.49999999999999994	149.09034404713896	0	0	0
174	1	1	0.0	0.0	149.9563694509234	0	0	0
175	1	1	0.0	-0.49999999999999994	150.82239485470785	0	0	0
176	1	1	0.0	0.0	151.6884202584923	0	0	0
177	1	1	0.0	-0.49999999999999994	152.55444566227675	0	0	0
178	1	1	0.0	0.0	153.4204710660612	0	0	0
179	1	1	0.0	-0.49999999999999994	154.28649646984564	0	0	0
180	1	1	0.0	0.0	155.1525218736301	0	0	0
181	1	1	0.0	-0.49999999999999994	156.01854727741454	0	0	0
182	1	1	0.0	0.0	156.884572681199	0	0	0
183	1	1	0.0	-0.49999999999999994	157.75059808498344	0	0	0
184	1	1	0.0	0.0	158.61662348876789	0	0	0
185	1	1	0.0	-0.49999999999999994	159.48264889255233	0	0	0
186	1	1	0.0	0.0	160.34867429633678	0	0	0
187	1	1	0.0	-0.49999999999999994	161.21469970012123	0	0	0
188	1	1	0.0	0.0	162.08072510390568	0	0	0
189	1	1	0.0	-0.49999999999999994	162.94675050769013	0	0	0
190	1	1	0.0	0.0	163.81277591147457	0	0	0
191	1	1	0.0	-0.49999999999999994	164.67880131525902	0	0	0
192	1	1	0.0	0.0	165.54482671904347	0	0	0
193	1	1	0.0	-0.49999999999999994	166.41085212282792	0	0	0
194	1	1	0.0	0.0	167.27687752661237	0	0	0
195	1	1	0.0	-0.49999999999999994	168.14290293039682	0	0	0
196	1	1	0.0	0.0	169.00892833418126	0	0	0
197	1	1	0.0	-0.49999999999999994	169.8749537379657	0	0	0
198	1	1	0.0	0.0	170.74097914175016	0	0	0
199	1	1	0.0	-0.49999999999999994	171.6070045455346	0	0	0
200	1	1	0.0	0.0	172.47302994931906	0	0	0
201	1	1	0.0	-0.49999999999999994	173.3390553531035	0	0	0
202	1	1	0.0	0.0	174.20508075688795	0	0	0
203	1	1	0.0	-0.49999999999999994	175.0711061606724	0	0	0
204	1	1	0.0	0.0	175.93713156445685	0	0	0
205	1	1	0.0	-0.49999999999999994	176.8031569682413	0	0	0
206	1	1	0.0	0.0	177.66918237202574	0	0	0
207	1	1	0.0	-0.49999999999999994	178.5352077758102	0	0	0
208	1	1	0.0	0.0	179.40123317959464	0	0	0
209	1	1	0.0	-0.49999999999999994	180.2672585833791	0	0	0
210	1	1	0.0	0.0	181.13328398716354	0	0	0
211	1	1	0.0	-0.49999999999999994	181.99930939094799	0	0	0
212	1	1	0.0	0.0	182.86533479473243	0	0	0
213	1	1	0.0	-0.49999999999999994	183.73136019851688	0	0	0
214	1	1	0.0	0.0	184.59738560230133	0	0	0
215	1	1	0.0	-0.49999999999999994	185.46341100608578	0	0	0
216	1	1	0.0	0.0	186.32943640987023	0	0	0
217	1	1	0.0	-0.49999999999999994	187.19546181365467	0	0	0
218	1	1	0.0	0.0	188.06148721743912	0	0	0
219	1	1	0.0	-0.49999999999999994	188.92751262122357	0	0	0
220	1	1	0.0	0.0	189.79353802500802	0	0	0
221	1	1	0.0	-0.49999999999999994	190.65956342879247	0	0	0
222	1	1	0.0	0.0	191.52558883257691	0	0	0
223	1	1	0.0	-0.49999999999999994	192.39161423636136	0	0	0
224	1	1	0.0	0.0	193.2576396401458	0	0	0
225	1	1	0.0	-0.49999999999999994	194.12366504393026	0	0	0
226	1	1	0.0	0.0	194.9896904477147	0	0	0
227	1	1	0.0	-0.49999999999999994	195.85571585149916	0	0	0
228	1	1	0.0	0.0	196.7217412552836	0	0	0
229	1	1	0.0	-0.49999999999999994	197.58776665906805	0	0	0
230	1	1	0.0	0.0	198.4537920628525	0	0	0
231	1	1	0.0	-0.49999999999999994	199.31981746663695	0	0	0
232	1	1	0.0	0.0	200.1858428704214	0	0	0
233	1	1	0.0	-0.49999999999999994	201.05186827420584	0	0	0
234	1	1	0.0	0.0	201.9178936779903	0	0	0
235	1	1	0.0	-0.49999999999999994	202.78391908177474	0	0	0
236	1	1	0.0	0.0	203.6499444855592	0	0	0
237	1	1	0.0	-0.49999999999999994	204.51596988934364	0	0	0
238	1	1	0.0	0.0	205.38199529312809	0	0	0
239	1	1	0.0	-0.49999999999999994	206.24802069691253	0	0	0
240	1	1	0.0	0.0	207.11404610069698	0	0	0
241	1	1	0.0	-0.49999999999999994	207.98007150448143	0	0	0
242	1	1	0.0	0.0	208.84609690826588	0	0	0
243	1	1	0.0	-0.49999999999999994	209.71212231205033	0	0	0
244	1	1	0.0	0.0	210.57814771583477	0	0	0
245	1	1	0.0	-0.49999999999999994	211.44417311961922	0	0	0
246	1	1	0.0	0.0	212.31019852340367	0	0	0
247	1	1	0.0	-0.49999999999999994	213.17622392718812	0	0	0
248	1	1	0.0	0.0	214.04224933097257	0	0	0
249	1	1	0.0	-0.49999999999999994	214.90827473475701	0	0	0
250	1	1	0.0	0.0	215.77430013854146	0	0	0
251	1	1	0.0	-0.49999999999999994	216.6403255423259	0	0	0
252	1	1	0.0	0.0	217.50635094611036	0	0	0
253	1	1	0.0	-0.49999999999999994	218.3723763498948	0	0	0
254	1	1	0.0	0.0	219.23840175367926	0	0	0
255	1	1	0.0	-0.49999999999999994	220.1044271574637	0	0	0
256	1	1	0.0	0.0	220.97045256124815	0	0	0
257	1	1	0.0	-0.49999999999999994	221.8364779650326	0	0	0
258	1	1	0.0	0.0	222.70250336881705	0	0	0
259	1	1	0.0	-0.49999999999999994	223.5685287726015	0	0	0
260	1	1	0.0	0.0	224.43455417638594	0	0	0
261	1	1	0.0	-0.49999999999999994	225.3005795801704	0	0	0
262	1	1	0.0	0.0	226.16660498395484	0	0	0
263	1	1	0.0	-0.49999999999999994	227.0326303877393	0	0	0
264	1	1	0.0	0.0	227.89865579152374	0	0	0
265	1	1	0.0	-0.49999999999999994	228.76468119530819	0	0	0
266	1	1	0.0	0.0	229.63070659909263	0	0	0
267	1	1	0.0	-0.49999999999999994	230.49673200287708	0	0	0
268	1	1	0.0	0.0	231.36275740666153	0	0	0
269	1	1	0.0	-0.49999999999999994	232.22878281044598	0	0	0
270	1	1	0.0	0.0	233.09480821423043	0	0	0
271	1	1	0.0	-0.49999999999999994	233.96083361801487	0	0	0
272	1	1	0.0	0.0	234.82685902179932	0	0	0
273	1	1	0.0	-0.49999999999999994	235.69288442558377	0	0	0
274	1	1	0.0	0.0	236.55890982936822	0	0	0
275	1	1	0.0	-0.49999999999999994	237.42493523315267	0	0	0
276	1	1	0.0	0.0	238.29096063693711	0	0	0
277	1	1	0.78981076116149	-0.27871855896930064	238.8373258320581	0	0	0
278	1	1	1.5796215223229737	-0.7932785091033984	239.17113269129186	0	0	0
279	1	1	2.3694322834844574	-0.7614732641165077	239.78365810949492	0	0	0
280	1	1	3.159243044645941	-1.2760332142506055	240.11746496872868	0	0	0
281	1	1	3.949053805807425	-1.2442279692637148	240.72999038693175	0	0	0
282	1	1	4.738864566968909	-1.7587879193978124	241.0637972461655	0	0	0
283	1	1	5.528675328130392	-1.7269826744109218	241.67632266436857	0	0	0
284	1	1	6.318486089291875	-2.2415426245450196	242.01012952360233	0	0	0
285	1	1	7.108296850453359	-2.209737379558129	242.6226549418054	0	0	0
286	1	1	7.898107611614842	-2.724297329692227	242.95646180103915	0	0	0
287	1	1	8.687918372776325	-2.692492084705336	243.56898721924222	0	0	0
288	1	1	9.477729133937808	-3.207052034839434	243.90279407847598	0	0	0
289	1	1	10.267539895099292	-3.1752467898525434	244.51531949667904	0	0	0
290	1	1	11.057350656260775	-3.689806739986641	244.8491263559128	0	0	0
291	1	1	11.847161417422258	-3.6580014949997506	245.46165177411586	0	0	0
292	1	1	12.636972178583742	-4.172561445133848	245.79545863334963	0	0	0
293	1	1	13.426782939745225	-4.140756200146957	246.4079840515527	0	0	0
294	1	1	14.216593700906708	-4.655316150281055	246.74179091078645	0	0	0
295	1	1	15.006404462068192	-4.6235109052941645	247.3543163289895	0	0	0
296	1	1	15.796215223229675	-5.138070855428262	247.68812318822327	0	0	0
297	1	1	16.58602598439116	-5.106265610441372	248.30064860642634	0	0	0
298	1	1	17.375836745552643	-5.62082556057547	248.6344554656601	0	0	0
299	1	1	18.165647506714127	-5.589020315588579	249.24698088386316	0	0	0
300	1	1	18.95545826787561	-6.103580265722677	249.58078774309692	0	0	0
301	1	1	19.745269029037093	-6.071775020735786	250.19331316129998	0	0	0
302	1	1	20.535079790198576	-6.586334970869884	250.52712002053374	0	0	0
303	1	1	21.32489055136006	-6.554529725882993	251.1396454387368	0	0	0
304	1	1	22.114701312521543	-7.069089676017091	251.47345229797057	0	0	0
305	1	1	22.904512073683026	-7.0372844310302005	252.08597771617363	0	0	0
306	1	1	23.69432283484451	-7.551844381164298	252.4197845754074	0	0	0
307	1	1	24.484133596005993	-7.520039136177408	253.03230999361045	0	0	0
308	1	1	25.273944357167476	-8.034599086311506	253.36611685284421	0	0	0
309	1	1	26.06375511832896	-8.002793841324614	253.97864227104728	0	0	0
310	1	1	26.853565879490443	-8.517353791458712	254.31244913028104	0	0	0
311	1	1	27.643376640651926	-8.48554854647182	254.9249745484841	0	0	0
312	1	1	28.43318740181341	-9.000108496605918	255.25878140771786	0	0	0
313	1	1	29.222998162974893	-8.968303251619027	255.87130682592093	0	0	0
314	1	1	30.012808924136376	-9.482863201753124	256.2051136851547	0	0	0
315	1	1	30.80261968529786	-9.451057956766233	256.81763910335775	0	0	0
316	1	1	31.592430446459343	-9.96561790690033	257.15144596259154	0	0	0
317	1	1	32.38224120762083	-9.93381266191344	257.7639713807946	0	0	0
318	1	1	33.17205196878231	-10.448372612047537	258.0977782400284	0	0	0
319	1	1	33.961862729943796	-10.416567367060646	258.71030365823145	0	0	0
320	1	1	34.75167349110528	-10.931127317194743	259.04411051746524	0	0	0
321	1	1	35.54148425226676	-10.899322072207852	259.6566359356683	0	0	0
322	1	1	36.331295013428246	-11.41388202234195	259.9904427949021	0	0	0
323	1	1	37.12110577458973	-11.382076777355058	260.60296821310516	0	0	0
324	1	1	37.91091653575121	-11.896636727489156	260.93677507233895	0	0	0
325	1	1	38.700727296912696	-11.864831482502264	261.549300490542	0	0	0
326	1	1	39.49053805807418	-12.379391432636362	261.8831073497758	0	0	0
327	1	1	40.28034881923566	-12.34758618764947	262.49563276797886	0	0	0
328	1	1	41.070159580397146	-12.862146137783569	262.82943962721265	0	0	0
329	1	1	41.85997034155863	-12.830340892796677	263.4419650454157	0	0	0
330	1	1	42.64978110272011	-13.344900842930775	263.7757719046495	0	0	0
331	1	1	43.439591863881596	-13.313095597943883	264.38829732285257	0	0	0
332	1	1	44.22940262504308	-13.827655548077981	264.72210418208635	0	0	0
333	1	1	45.01921338620456	-13.79585030309109	265.3346296002894	0	0	0
334	1	1	45.809024147366046	-14.310410253225188	265.6684364595232	0	0	0
335	1	1	46.59883490852753	-14.278605008238296	266.28096187772627	0	0	0
336	1	1	47.38864566968901	-14.793164958372394	266.61476873696006	0	0	0
337	1	1	48.178456430850495	-14.761359713385502	267.2272941551631	0	0	0
338	1	1	48.96826719201198	-15.2759196635196	267.5611010143969	0	0	0
339	1	1	49.75807795317346	-15.244114418532709	268.1736264326	0	0	0
340	1	1	50.547888714334945	-15.758674368666806	268.50743329183376	0	0	0
341	1	1	51.33769947549643	-15.726869123679915	269.1199587100368	0	0	0
342	1	1	52.12751023665791	-16.24142907381401	269.4537655692706	0	0	0
343	1	1	52.917320997819395	-16.20962382882712	270.0662909874737	0	0	0
344	1	1	53.70713175898088	-16.724183778961216	270.40009784670747	0	0	0
345	1	1	54.49694252014236	-16.692378533974324	271.01262326491053	0	0	0
346	1	1	55.286753281303845	-17.20693848410842	271.3464301241443	0	0	0
347	1	1	56.07656404246533	-17.17513323912153	271.9589555423474	0	0	0
348	1	1	56.86637480362681	-17.689693189255625	272.2927624015812	0	0	0
349	1	1	57.656185564788295	-17.657887944268733	272.90528781978423	0	0	0
350	1	1	58.44599632594978	-18.17244789440283	273.239094679018	0	0	0
351	1	1	59.23580708711126	-18.140642649415938	273.8516200972211	0	0	0
352	1	1	60.025617848272745	-18.655202599550034	274.1854269564549	0	0	0
353	1	1	60.81542860943423	-18.623397354563142	274.79795237465794	0	0	0
354	1	1	61.60523937059571	-19.137957304697238	275.1317592338917	0	0	0
355	1	1	62.395050131757195	-19.106152059710347	275.7442846520948	0	0	0
356	1	1	63.18486089291868	-19.620712009844443	276.0780915113286	0	0	0
357	1	1	63.97467165408016	-19.58890676485755	276.69061692953164	0	0	0
358	1	1	64.76448241524164	-20.103466714991647	277.02442378876543	0	0	0
359	1	1	65.55429317640314	-20.071661470004756	277.6369492069685	0	0	0
360	1	1	66.34410393756463	-20.586221420138852	277.9707560662023	0	0	0
361	1	1	67.13391469872612	-20.55441617515196	278.58328148440535	0	0	0
362	1	1	67.9237254598876	-21.068976125286056	278.91708834363914	0	0	0
363	1	1	68.7135362210491	-21.037170880299165	279.5296137618422	0	0	0
364	1	1	69.50334698221059	-21.55173083043326	279.863420621076	0	0	0
365	1	1	70.29315774337208	-21.51992558544637	280.47594603927905	0	0	0
366	1	1	71.08296850453357	-22.034485535580465	280.80975289851284	0	0	0
367	1	1	71.87277926569506	-22.002680290593574	281.4222783167159	0	0	0
368	1	1	72.66259002685655	-22.51724024072767	281.7560851759497	0	0	0
369	1	1	73.45240078801804	-22.48543499574078	282.36861059415276	0	0	0
370	1	1	74.24221154917953	-22.999994945874874	282.70241745338654	0	0	0
371	1	1	75.03202231034102	-22.968189700887983	283.3149428715896	0	0	0
372	1	1	75.82183307150251	-23.48274965102208	283.6487497308234	0	0	0
373	1	1	76.611643832664	-23.450944406035187	284.26127514902646	0	0	0
374	1	1	77.40145459382549	-23.965504356169284	284.59508200826025	0	0	0
375	1	1	78.19126535498698	-23.933699111182392	285.2076074264633	0	0	0
376	1	1	78.98107611614847	-24.448259061316488	285.5414142856971	0	0	0
377	1	1	79.77088687730996	-24.416453816329597	286.15393970390016	0	0	0
378	1	1	80.56069763847145	-24.931013766463693	286.48774656313395	0	0	0
379	1	1	81.35050839963294	-24.8992085214768	287.100271981337	0	0	0
380	1	1	82.14031916079443	-25.413768471610897	287.4340788405708	0	0	0
381	1	1	82.93012992195592	-25.381963226624006	288.04660425877387	0	0	0
382	1	1	83.71994068311741	-25.8965231767581	288.38041111800766	0	0	0
383	1	1	84.5097514442789	-25.86471793177121	288.9929365362107	0	0	0
384	1	1	85.2995622054404	-26.379277881905306	289.3267433954445	0	0	0
385	1	1	86.08937296660189	-26.347472636918415	289.9392688136476	0	0	0
386	1	1	86.87918372776338	-26.86203258705251	290.27307567288136	0	0	0
387	1	1	87.66899448892487	-26.83022734206562	290.8856010910844	0	0	0
388	1	1	88.45880525008636	-27.344787292199715	291.2194079503182	0	0	0
389	1	1	89.24861601124785	-27.312982047212824	291.8319333685213	0	0	0
390	1	1	90.03842677240934	-27.82754199734692	292.16574022775507	0	0	0
391	1	1	90.82823753357083	-27.79573675236003	292.77826564595813	0	0	0
392	1	1	91.61804829473232	-28.310296702494124	293.1120725051919	0	0	0
393	1	1	92.40785905589381	-28.278491457507233	293.724597923395	0	0	0
394	1	1	93.1976698170553	-28.79305140764133	294.05840478262877	0	0	0
395	1	1	93.98748057821679	-28.761246162654437	294.67093020083183	0	0	0
396	1	1	94.77729133937828	-29.275806112788533	295.0047370600656	0	0	0
397	1	1	95.56710210053977	-29.244000867801642	295.6172624782687	0	0	0
398	1	1	96.35691286170126	-29.758560817935738	295.9510693375025	0	0	0
399	1	1	97.14672362286275	-29.726755572948846	296.56359475570554	0	0	0
400	1	1	97.93653438402424	-30.241315523082942	296.8974016149393	0	0	0
401	1	1	98.72634514518573	-30.20951027809605	297.5099270331424	0	0	0
402	1	1	99.51615590634722	-30.724070228230147	297.8437338923762	0	0	0
403	1	1	100.30596666750871	-30.692264983243255	298.45625931057924	0	0	0
404	1	1	101.0957774286702	-31.20682493337735	298.79006616981303	0	0	0
405	1	1	101.8855881898317	-31.17501968839046	299.4025915880161	0	0	0
406	1	1	102.67539895099318	-31.689579638524556	299.7363984472499	0	0	0
407	1	1	103.46520971215467	-31.657774393537665	300.34892386545295	0	0	0
408	1	1	104.25502047331616	-32.172334343671764	300.68273072468673	0	0	0
409	1	1	105.04483123447766	-32.14052909868487	301.2952561428898	0	0	0
410	1	1	105.83464199563915	-32.65508904881897	301.6290630021236	0	0	0
411	1	1	106.62445275680064	-32.62328380383208	302.24158842032665	0	0	0
412	1	1	107.41426351796213	-33.13784375396618	302.57539527956044	0	0	0
413	1	1	108.20407427912362	-33.10603850897929	303.1879206977635	0	0	0
414	1	1	108.99388504028511	-33.62059845911339	303.5217275569973	0	0	0
415	1	1	109.7836958014466	-33.5887932141265	304.13425297520035	0	0	0
416	1	1	110.57350656260809	-34.1033531642606	304.46805983443414	0	0	0
417	1	1	111.36331732376958	-34.071547919273705	305.0805852526372	0	0	0
418	1	1	112.15312808493107	-34.586107869407805	305.414392111871	0	0	0
419	1	1	112.94293884609256	-34.55430262442091	306.02691753007406	0	0	0
420	1	1	113.73274960725405	-35.06886257455501	306.36072438930785	0	0	0
421	1	1	114.52256036841554	-35.03705732956812	306.9732498075109	0	0	0
422	1	1	115.31237112957703	-35.55161727970222	307.3070566667447	0	0	0
423	1	1	116.10218189073852	-35.51981203471533	307.91958208494776	0	0	0
424	1	1	116.89199265190001	-36.03437198484943	308.25338894418155	0	0	0
425	1	1	117.6818034130615	-36.00256673986254	308.8659143623846	0	0	0
426	1	1	118.47161417422299	-36.51712668999664	309.1997212216184	0	0	0
427	1	1	119.26142493538448	-36.485321445009745	309.81224663982147	0	0	0
428	1	1	120.05123569654597	-36.999881395143845	310.14605349905526	0	0	0
429	1	1	120.84104645770746	-36.96807615015695	310.7585789172583	0	0	0
430	1	1	121.63085721886895	-37.48263610029105	311.0923857764921	0	0	0
431	1	1	122.42066798003044	-37.45083085530416	311.70491119469517	0	0	0
432	1	1	123.21047874119193	-37.96539080543826	312.03871805392896	0	0	0
433	1	1	124.00028950235343	-37.93358556045137	312.651243472132	0	0	0
434	1	1	124.79010026351492	-38.44814551058547	312.9850503313658	0	0	0
435	1	1	125.5799110246764	-38.41634026559858	313.5975757495689	0	0	0
436	1	1	126.3697217858379	-38.93090021573268	313.93138260880266	0	0	0
437	1	1	127.15953254699939	-38.899094970745786	314.5439080270057	0	0	0
438	1	1	127.94934330816088	-39.413654920879885	314.8777148862395	0	0	0
439	1	1	128.73915406932235	-39.381849675892994	315.4902403044426	0	0	0
440	1	1	129.52896483048383	-39.89640962602709	315.82404716367637	0	0	0
441	1	1	130.3187755916453	-39.8646043810402	316.43657258187943	0	0	0
442	1	1	131.10858635280678	-40.3791643311743	316.7703794411132	0	0	0
443	1	1	131.89839711396826	-40.34735908618741	317.3829048593163	0	0	0
444	1	1	132.68820787512973	-40.86191903632151	317.7167117185501	0	0	0
445	1	1	133.4780186362912	-40.83011379133462	318.32923713675314	0	0	0
446	1	1	134.2678293974527	-41.34467374146872	318.6630439959869	0	0	0
447	1	1	135.05764015861416	-41.312868496481826	319.27556941419	0	0	0
448	1	1	135.84745091977564	-41.827428446615926	319.6093762734238	0	0	0
449	1	1	136.63726168093712	-41.795623201629034	320.22190169162684	0	0	0
450	1	1	137.4270724420986	-42.310183151763134	320.55570855086063	0	0	0
451	1	1	138.21688320326007	-42.27837790677624	321.1682339690637	0	0	0
452	1	1	139.00669396442154	-42.79293785691034	321.5020408282975	0	0	0
453	1	1	139.79650472558302	-42.76113261192345	322.11456624650054	0	0	0
454	1	1	140.5863154867445	-43.27569256205755	322.44837310573433	0	0	0
455	1	1	141.37612624790597	-43.24388731707066	323.0608985239374	0	0	0
456	1	1	142.16593700906745	-43.75844726720476	323.3947053831712	0	0	0
457	1	1	142.95574777022892	-43.72664202221787	324.00723080137425	0	0	0
458	1	1	143.7455585313904	-44.241201972351966	324.34103766060804	0	0	0
459	1	1	144.53536929255188	-44.209396727365075	324.9535630788111	0	0	0
460	1	1	145.32518005371335	-44.723956677499174	325.2873699380449	0	0	0
461	1	1	146.11499081487483	-44.69215143251228	325.89989535624795	0	0	0
462	1	1	146.9048015760363	-45.20671138264638	326.23370221548174	0	0	0
463	1	1	147.69461233719778	-45.17490613765949	326.8462276336848	0	0	0
464	1	1	148.48442309835926	-45.68946608779359	327.1800344929186	0	0	0
465	1	1	149.27423385952073	-45.6576608428067	327.79255991112166	0	0	0
466	1	1	150.0640446206822	-46.1722207929408	328.12636677035545	0	0	0
467	1	1	150.8538553818437	-46.14041554795391	328.7388921885585	0	0	0
468	1	1	151.64366614300516	-46.65497549808801	329.0726990477923	0	0	0
469	1	1	152.43347690416664	-46.623170253101115	329.68522446599536	0	0	0
470	1	1	153.22328766532812	-47.137730203235215	330.01903132522915	0	0	0
471	1	1	154.0130984264896	-47.10592495824832	330.6315567434322	0	0	0
472	1	1	154.80290918765107	-47.62048490838242	330.965363602666	0	0	0
473	1	1	155.59271994881254	-47.58867966339553	331.57788902086907	0	0	0
474	1	1	156.38253070997402	-48.10323961352963	331.91169588010285	0	0	0
475	1	1	157.1723414711355	-48.07143436854274	332.5242212983059	0	0	0
476	1	1	157.96215223229697	-48.58599431867684	332.8580281575397	0	0	0
477	1	1	158.75196299345845	-48.55418907368995	333.47055357574277	0	0	0
478	1	1	159.54177375461992	-49.06874902382405	333.80436043497656	0	0	0
479	1	1	160.3315845157814	-49.036943778837156	334.4168858531796	0	0	0
480	1	1	161.12139527694288	-49.551503728971255	334.7506927124134	0	0	0
481	1	1	161.91120603810435	-49.519698483984364	335.3632181306165	0	0	0
482	1	1	162.70101679926583	-50.03425843411846	335.69702498985026	0	0	0
483	1	1	163.4908275604273	-50.00245318913157	336.3095504080533	0	0	0
484	1	1	164.28063832158878	-50.51701313926567	336.6433572672871	0	0	0
485	1	1	165.07044908275026	-50.48520789427878	337.2558826854902	0	0	0
486	1	1	165.86025984391173	-50.99976784441288	337.58968954472397	0	0	0
487	1	1	166.6500706050732	-50.96796259942599	338.20221496292703	0	0	0
488	1	1	167.4398813662347	-51.48252254956009	338.5360218221608	0	0	0
489	1	1	168.22969212739616	-51.450717304573196	339.1485472403639	0	0	0
490	1	1	169.01950288855764	-51.965277254707296	339.48235409959767	0	0	0
491	1	1	169.80931364971912	-51.933472009720404	340.09487951780073	0	0	0
492	1	1	170.5991244108806	-52.448031959854504	340.4286863770345	0	0	0
493	1	1	171.38893517204207	-52.41622671486761	341.0412117952376	0	0	0
494	1	1	172.17874593320354	-52.93078666500171	341.3750186544714	0	0	0
495	1	1	172.96855669436502	-52.89898142001482	341.98754407267444	0	0	0
496	1	1	173.7583674555265	-53.41354137014892	342.3213509319082	0	0	0
497	1	1	174.54817821668797	-53.38173612516203	342.9338763501113	0	0	0
498	1	1	175.33798897784945	-53.89629607529613	343.2676832093451	0	0	0
499	1	1	176.12779973901092	-53.86449083030924	343.88020862754814	0	0	0
500	1	1	176.9176105001724	-54.379050780443336	344.21401548678193	0	0	0
501	1	1	177.70742126133388	-54.347245535456445	344.826540904985	0	0	0
502	1	1	178.49723202249535	-54.861805485590544	345.1603477642188	0	0	0
503	1	1	179.28704278365683	-54.83000024060365	345.77287318242185	0	0	0
504	1	1	180.0768535448183	-55.34456019073775	346.10668004165564	0	0	0
505	1	1	180.86666430597978	-55.31275494575086	346.7192054598587	0	0	0
506	1	1	181.65647506714126	-55.82731489588496	347.0530123190925	0	0	0
507	1	1	182.44628582830273	-55.79550965089807	347.66553773729555	0	0	0
508	1	1	183.2360965894642	-56.31006960103217	347.99934459652934	0	0	0
509	1	1	184.0259073506257	-56.27826435604528	348.6118700147324	0	0	0
510	1	1	184.81571811178716	-56.79282430617938	348.9456768739662	0	0	0