bb601nuc1bl300bn4d30tot1200

1201 atoms
1200 bonds
1202 angles

1 atom types
1 bond types
1 angle types

-1000 1000 xlo xhi
-1000 1000 ylo yhi
-1000 1000 zlo zhi

Masses

1 1

Atoms

1	1	1	0.0	0.0	0.0	0	0	0
2	1	1	0.0	0.0	1.0	0	0	0
3	1	1	0.0	-0.49999999999999994	1.8660254037844388	0	0	0
4	1	1	0.0	0.0	2.7320508075688776	0	0	0
5	1	1	0.0	-0.49999999999999994	3.5980762113533165	0	0	0
6	1	1	0.0	0.0	4.464101615137755	0	0	0
7	1	1	0.0	-0.49999999999999994	5.330127018922194	0	0	0
8	1	1	0.0	0.0	6.196152422706632	0	0	0
9	1	1	0.0	-0.49999999999999994	7.06217782649107	0	0	0
10	1	1	0.0	0.0	7.928203230275509	0	0	0
11	1	1	0.0	-0.49999999999999994	8.794228634059948	0	0	0
12	1	1	0.0	0.0	9.660254037844387	0	0	0
13	1	1	0.0	-0.49999999999999994	10.526279441628827	0	0	0
14	1	1	0.0	0.0	11.392304845413266	0	0	0
15	1	1	0.0	-0.49999999999999994	12.258330249197705	0	0	0
16	1	1	0.0	0.0	13.124355652982144	0	0	0
17	1	1	0.0	-0.49999999999999994	13.990381056766584	0	0	0
18	1	1	0.0	0.0	14.856406460551023	0	0	0
19	1	1	0.0	-0.49999999999999994	15.722431864335462	0	0	0
20	1	1	0.0	0.0	16.5884572681199	0	0	0
21	1	1	0.0	-0.49999999999999994	17.454482671904337	0	0	0
22	1	1	0.0	0.0	18.320508075688775	0	0	0
23	1	1	0.0	-0.49999999999999994	19.186533479473212	0	0	0
24	1	1	0.0	0.0	20.05255888325765	0	0	0
25	1	1	0.0	-0.49999999999999994	20.918584287042087	0	0	0
26	1	1	0.0	0.0	21.784609690826525	0	0	0
27	1	1	0.0	-0.49999999999999994	22.650635094610962	0	0	0
28	1	1	0.0	0.0	23.5166604983954	0	0	0
29	1	1	0.0	-0.49999999999999994	24.382685902179837	0	0	0
30	1	1	0.0	0.0	25.248711305964274	0	0	0
31	1	1	0.0	-0.49999999999999994	26.114736709748712	0	0	0
32	1	1	0.0	0.0	26.98076211353315	0	0	0
33	1	1	0.0	-0.49999999999999994	27.846787517317587	0	0	0
34	1	1	0.0	0.0	28.712812921102024	0	0	0
35	1	1	0.0	-0.49999999999999994	29.578838324886462	0	0	0
36	1	1	0.0	0.0	30.4448637286709	0	0	0
37	1	1	0.0	-0.49999999999999994	31.310889132455337	0	0	0
38	1	1	0.0	0.0	32.17691453623978	0	0	0
39	1	1	0.0	-0.49999999999999994	33.04293994002422	0	0	0
40	1	1	0.0	0.0	33.90896534380866	0	0	0
41	1	1	0.0	-0.49999999999999994	34.7749907475931	0	0	0
42	1	1	0.0	0.0	35.64101615137754	0	0	0
43	1	1	0.0	-0.49999999999999994	36.50704155516198	0	0	0
44	1	1	0.0	0.0	37.373066958946424	0	0	0
45	1	1	0.0	-0.49999999999999994	38.239092362730865	0	0	0
46	1	1	0.0	0.0	39.105117766515306	0	0	0
47	1	1	0.0	-0.49999999999999994	39.97114317029975	0	0	0
48	1	1	0.0	0.0	40.83716857408419	0	0	0
49	1	1	0.0	-0.49999999999999994	41.70319397786863	0	0	0
50	1	1	0.0	0.0	42.56921938165307	0	0	0
51	1	1	0.0	-0.49999999999999994	43.43524478543751	0	0	0
52	1	1	0.0	0.0	44.30127018922195	0	0	0
53	1	1	0.0	-0.49999999999999994	45.16729559300639	0	0	0
54	1	1	0.0	0.0	46.033320996790835	0	0	0
55	1	1	0.0	-0.49999999999999994	46.899346400575276	0	0	0
56	1	1	0.0	0.0	47.76537180435972	0	0	0
57	1	1	0.0	-0.49999999999999994	48.63139720814416	0	0	0
58	1	1	0.0	0.0	49.4974226119286	0	0	0
59	1	1	0.0	-0.49999999999999994	50.36344801571304	0	0	0
60	1	1	0.0	0.0	51.22947341949748	0	0	0
61	1	1	0.0	-0.49999999999999994	52.09549882328192	0	0	0
62	1	1	0.0	0.0	52.96152422706636	0	0	0
63	1	1	0.0	-0.49999999999999994	53.827549630850804	0	0	0
64	1	1	0.0	0.0	54.693575034635245	0	0	0
65	1	1	0.0	-0.49999999999999994	55.559600438419686	0	0	0
66	1	1	0.0	0.0	56.42562584220413	0	0	0
67	1	1	0.0	-0.49999999999999994	57.29165124598857	0	0	0
68	1	1	0.0	0.0	58.15767664977301	0	0	0
69	1	1	0.0	-0.49999999999999994	59.02370205355745	0	0	0
70	1	1	0.0	0.0	59.88972745734189	0	0	0
71	1	1	0.0	-0.49999999999999994	60.75575286112633	0	0	0
72	1	1	0.0	0.0	61.62177826491077	0	0	0
73	1	1	0.0	-0.49999999999999994	62.487803668695214	0	0	0
74	1	1	0.0	0.0	63.353829072479655	0	0	0
75	1	1	0.0	-0.49999999999999994	64.21985447626409	0	0	0
76	1	1	0.0	0.0	65.08587988004852	0	0	0
77	1	1	0.0	-0.49999999999999994	65.95190528383296	0	0	0
78	1	1	0.0	0.0	66.81793068761739	0	0	0
79	1	1	0.0	-0.49999999999999994	67.68395609140183	0	0	0
80	1	1	0.0	0.0	68.54998149518626	0	0	0
81	1	1	0.0	-0.49999999999999994	69.41600689897069	0	0	0
82	1	1	0.0	0.0	70.28203230275513	0	0	0
83	1	1	0.0	-0.49999999999999994	71.14805770653956	0	0	0
84	1	1	0.0	0.0	72.014083110324	0	0	0
85	1	1	0.0	-0.49999999999999994	72.88010851410843	0	0	0
86	1	1	0.0	0.0	73.74613391789286	0	0	0
87	1	1	0.0	-0.49999999999999994	74.6121593216773	0	0	0
88	1	1	0.0	0.0	75.47818472546173	0	0	0
89	1	1	0.0	-0.49999999999999994	76.34421012924616	0	0	0
90	1	1	0.0	0.0	77.2102355330306	0	0	0
91	1	1	0.0	-0.49999999999999994	78.07626093681503	0	0	0
92	1	1	0.0	0.0	78.94228634059947	0	0	0
93	1	1	0.0	-0.49999999999999994	79.8083117443839	0	0	0
94	1	1	0.0	0.0	80.67433714816833	0	0	0
95	1	1	0.0	-0.49999999999999994	81.54036255195277	0	0	0
96	1	1	0.0	0.0	82.4063879557372	0	0	0
97	1	1	0.0	-0.49999999999999994	83.27241335952164	0	0	0
98	1	1	0.0	0.0	84.13843876330607	0	0	0
99	1	1	0.0	-0.49999999999999994	85.0044641670905	0	0	0
100	1	1	0.0	0.0	85.87048957087494	0	0	0
101	1	1	0.0	-0.49999999999999994	86.73651497465937	0	0	0
102	1	1	0.0	0.0	87.6025403784438	0	0	0
103	1	1	0.0	-0.49999999999999994	88.46856578222824	0	0	0
104	1	1	0.0	0.0	89.33459118601267	0	0	0
105	1	1	0.0	-0.49999999999999994	90.20061658979711	0	0	0
106	1	1	0.0	0.0	91.06664199358154	0	0	0
107	1	1	0.0	-0.49999999999999994	91.93266739736598	0	0	0
108	1	1	0.0	0.0	92.79869280115041	0	0	0
109	1	1	0.0	-0.49999999999999994	93.66471820493484	0	0	0
110	1	1	0.0	0.0	94.53074360871928	0	0	0
111	1	1	0.0	-0.49999999999999994	95.39676901250371	0	0	0
112	1	1	0.0	0.0	96.26279441628814	0	0	0
113	1	1	0.0	-0.49999999999999994	97.12881982007258	0	0	0
114	1	1	0.0	0.0	97.99484522385701	0	0	0
115	1	1	0.0	-0.49999999999999994	98.86087062764145	0	0	0
116	1	1	0.0	0.0	99.72689603142588	0	0	0
117	1	1	0.0	-0.49999999999999994	100.59292143521031	0	0	0
118	1	1	0.0	0.0	101.45894683899475	0	0	0
119	1	1	0.0	-0.49999999999999994	102.32497224277918	0	0	0
120	1	1	0.0	0.0	103.19099764656362	0	0	0
121	1	1	0.0	-0.49999999999999994	104.05702305034805	0	0	0
122	1	1	0.0	0.0	104.92304845413248	0	0	0
123	1	1	0.0	-0.49999999999999994	105.78907385791692	0	0	0
124	1	1	0.0	0.0	106.65509926170135	0	0	0
125	1	1	0.0	-0.49999999999999994	107.52112466548579	0	0	0
126	1	1	0.0	0.0	108.38715006927022	0	0	0
127	1	1	0.0	-0.49999999999999994	109.25317547305465	0	0	0
128	1	1	0.0	0.0	110.11920087683909	0	0	0
129	1	1	0.0	-0.49999999999999994	110.98522628062352	0	0	0
130	1	1	0.0	0.0	111.85125168440796	0	0	0
131	1	1	0.0	-0.49999999999999994	112.71727708819239	0	0	0
132	1	1	0.0	0.0	113.58330249197682	0	0	0
133	1	1	0.0	-0.49999999999999994	114.44932789576126	0	0	0
134	1	1	0.0	0.0	115.31535329954569	0	0	0
135	1	1	0.0	-0.49999999999999994	116.18137870333013	0	0	0
136	1	1	0.0	0.0	117.04740410711456	0	0	0
137	1	1	0.0	-0.49999999999999994	117.913429510899	0	0	0
138	1	1	0.0	0.0	118.77945491468343	0	0	0
139	1	1	0.0	-0.49999999999999994	119.64548031846786	0	0	0
140	1	1	0.0	0.0	120.5115057222523	0	0	0
141	1	1	0.0	-0.49999999999999994	121.37753112603673	0	0	0
142	1	1	0.0	0.0	122.24355652982116	0	0	0
143	1	1	0.0	-0.49999999999999994	123.1095819336056	0	0	0
144	1	1	0.0	0.0	123.97560733739003	0	0	0
145	1	1	0.0	-0.49999999999999994	124.84163274117446	0	0	0
146	1	1	0.0	0.0	125.7076581449589	0	0	0
147	1	1	0.0	-0.49999999999999994	126.57368354874333	0	0	0
148	1	1	0.0	0.0	127.43970895252777	0	0	0
149	1	1	0.0	-0.49999999999999994	128.3057343563122	0	0	0
150	1	1	0.0	0.0	129.17175976009665	0	0	0
151	1	1	0.0	-0.49999999999999994	130.0377851638811	0	0	0
152	1	1	0.0	0.0	130.90381056766554	0	0	0
153	1	1	0.0	-0.49999999999999994	131.76983597145	0	0	0
154	1	1	0.0	0.0	132.63586137523444	0	0	0
155	1	1	0.0	-0.49999999999999994	133.5018867790189	0	0	0
156	1	1	0.0	0.0	134.36791218280334	0	0	0
157	1	1	0.0	-0.49999999999999994	135.23393758658779	0	0	0
158	1	1	0.0	0.0	136.09996299037223	0	0	0
159	1	1	0.0	-0.49999999999999994	136.96598839415668	0	0	0
160	1	1	0.0	0.0	137.83201379794113	0	0	0
161	1	1	0.0	-0.49999999999999994	138.69803920172558	0	0	0
162	1	1	0.0	0.0	139.56406460551003	0	0	0
163	1	1	0.0	-0.49999999999999994	140.43009000929447	0	0	0
164	1	1	0.0	0.0	141.29611541307892	0	0	0
165	1	1	0.0	-0.49999999999999994	142.16214081686337	0	0	0
166	1	1	0.0	0.0	143.02816622064782	0	0	0
167	1	1	0.0	-0.49999999999999994	143.89419162443227	0	0	0
168	1	1	0.0	0.0	144.76021702821672	0	0	0
169	1	1	0.0	-0.49999999999999994	145.62624243200116	0	0	0
170	1	1	0.0	0.0	146.4922678357856	0	0	0
171	1	1	0.0	-0.49999999999999994	147.35829323957006	0	0	0
172	1	1	0.0	0.0	148.2243186433545	0	0	0
173	1	1	0.0	-0.49999999999999994	149.09034404713896	0	0	0
174	1	1	0.0	0.0	149.9563694509234	0	0	0
175	1	1	0.0	-0.49999999999999994	150.82239485470785	0	0	0
176	1	1	0.0	0.0	151.6884202584923	0	0	0
177	1	1	0.0	-0.49999999999999994	152.55444566227675	0	0	0
178	1	1	0.0	0.0	153.4204710660612	0	0	0
179	1	1	0.0	-0.49999999999999994	154.28649646984564	0	0	0
180	1	1	0.0	0.0	155.1525218736301	0	0	0
181	1	1	0.0	-0.49999999999999994	156.01854727741454	0	0	0
182	1	1	0.0	0.0	156.884572681199	0	0	0
183	1	1	0.0	-0.49999999999999994	157.75059808498344	0	0	0
184	1	1	0.0	0.0	158.61662348876789	0	0	0
185	1	1	0.0	-0.49999999999999994	159.48264889255233	0	0	0
186	1	1	0.0	0.0	160.34867429633678	0	0	0
187	1	1	0.0	-0.49999999999999994	161.21469970012123	0	0	0
188	1	1	0.0	0.0	162.08072510390568	0	0	0
189	1	1	0.0	-0.49999999999999994	162.94675050769013	0	0	0
190	1	1	0.0	0.0	163.81277591147457	0	0	0
191	1	1	0.0	-0.49999999999999994	164.67880131525902	0	0	0
192	1	1	0.0	0.0	165.54482671904347	0	0	0
193	1	1	0.0	-0.49999999999999994	166.41085212282792	0	0	0
194	1	1	0.0	0.0	167.27687752661237	0	0	0
195	1	1	0.0	-0.49999999999999994	168.14290293039682	0	0	0
196	1	1	0.0	0.0	169.00892833418126	0	0	0
197	1	1	0.0	-0.49999999999999994	169.8749537379657	0	0	0
198	1	1	0.0	0.0	170.74097914175016	0	0	0
199	1	1	0.0	-0.49999999999999994	171.6070045455346	0	0	0
200	1	1	0.0	0.0	172.47302994931906	0	0	0
201	1	1	0.0	-0.49999999999999994	173.3390553531035	0	0	0
202	1	1	0.0	0.0	174.20508075688795	0	0	0
203	1	1	0.0	-0.49999999999999994	175.0711061606724	0	0	0
204	1	1	0.0	0.0	175.93713156445685	0	0	0
205	1	1	0.0	-0.49999999999999994	176.8031569682413	0	0	0
206	1	1	0.0	0.0	177.66918237202574	0	0	0
207	1	1	0.0	-0.49999999999999994	178.5352077758102	0	0	0
208	1	1	0.0	0.0	179.40123317959464	0	0	0
209	1	1	0.0	-0.49999999999999994	180.2672585833791	0	0	0
210	1	1	0.0	0.0	181.13328398716354	0	0	0
211	1	1	0.0	-0.49999999999999994	181.99930939094799	0	0	0
212	1	1	0.0	0.0	182.86533479473243	0	0	0
213	1	1	0.0	-0.49999999999999994	183.73136019851688	0	0	0
214	1	1	0.0	0.0	184.59738560230133	0	0	0
215	1	1	0.0	-0.49999999999999994	185.46341100608578	0	0	0
216	1	1	0.0	0.0	186.32943640987023	0	0	0
217	1	1	0.0	-0.49999999999999994	187.19546181365467	0	0	0
218	1	1	0.0	0.0	188.06148721743912	0	0	0
219	1	1	0.0	-0.49999999999999994	188.92751262122357	0	0	0
220	1	1	0.0	0.0	189.79353802500802	0	0	0
221	1	1	0.0	-0.49999999999999994	190.65956342879247	0	0	0
222	1	1	0.0	0.0	191.52558883257691	0	0	0
223	1	1	0.0	-0.49999999999999994	192.39161423636136	0	0	0
224	1	1	0.0	0.0	193.2576396401458	0	0	0
225	1	1	0.0	-0.49999999999999994	194.12366504393026	0	0	0
226	1	1	0.0	0.0	194.9896904477147	0	0	0
227	1	1	0.0	-0.49999999999999994	195.85571585149916	0	0	0
228	1	1	0.0	0.0	196.7217412552836	0	0	0
229	1	1	0.0	-0.49999999999999994	197.58776665906805	0	0	0
230	1	1	0.0	0.0	198.4537920628525	0	0	0
231	1	1	0.0	-0.49999999999999994	199.31981746663695	0	0	0
232	1	1	0.0	0.0	200.1858428704214	0	0	0
233	1	1	0.0	-0.49999999999999994	201.05186827420584	0	0	0
234	1	1	0.0	0.0	201.9178936779903	0	0	0
235	1	1	0.0	-0.49999999999999994	202.78391908177474	0	0	0
236	1	1	0.0	0.0	203.6499444855592	0	0	0
237	1	1	0.0	-0.49999999999999994	204.51596988934364	0	0	0
238	1	1	0.0	0.0	205.38199529312809	0	0	0
239	1	1	0.0	-0.49999999999999994	206.24802069691253	0	0	0
240	1	1	0.0	0.0	207.11404610069698	0	0	0
241	1	1	0.0	-0.49999999999999994	207.98007150448143	0	0	0
242	1	1	0.0	0.0	208.84609690826588	0	0	0
243	1	1	0.0	-0.49999999999999994	209.71212231205033	0	0	0
244	1	1	0.0	0.0	210.57814771583477	0	0	0
245	1	1	0.0	-0.49999999999999994	211.44417311961922	0	0	0
246	1	1	0.0	0.0	212.31019852340367	0	0	0
247	1	1	0.0	-0.49999999999999994	213.17622392718812	0	0	0
248	1	1	0.0	0.0	214.04224933097257	0	0	0
249	1	1	0.0	-0.49999999999999994	214.90827473475701	0	0	0
250	1	1	0.0	0.0	215.77430013854146	0	0	0
251	1	1	0.0	-0.49999999999999994	216.6403255423259	0	0	0
252	1	1	0.0	0.0	217.50635094611036	0	0	0
253	1	1	0.0	-0.49999999999999994	218.3723763498948	0	0	0
254	1	1	0.0	0.0	219.23840175367926	0	0	0
255	1	1	0.0	-0.49999999999999994	220.1044271574637	0	0	0
256	1	1	0.0	0.0	220.97045256124815	0	0	0
257	1	1	0.0	-0.49999999999999994	221.8364779650326	0	0	0
258	1	1	0.0	0.0	222.70250336881705	0	0	0
259	1	1	0.0	-0.49999999999999994	223.5685287726015	0	0	0
260	1	1	0.0	0.0	224.43455417638594	0	0	0
261	1	1	0.0	-0.49999999999999994	225.3005795801704	0	0	0
262	1	1	0.0	0.0	226.16660498395484	0	0	0
263	1	1	0.0	-0.49999999999999994	227.0326303877393	0	0	0
264	1	1	0.0	0.0	227.89865579152374	0	0	0
265	1	1	0.0	-0.49999999999999994	228.76468119530819	0	0	0
266	1	1	0.0	0.0	229.63070659909263	0	0	0
267	1	1	0.0	-0.49999999999999994	230.49673200287708	0	0	0
268	1	1	0.0	0.0	231.36275740666153	0	0	0
269	1	1	0.0	-0.49999999999999994	232.22878281044598	0	0	0
270	1	1	0.0	0.0	233.09480821423043	0	0	0
271	1	1	0.0	-0.49999999999999994	233.96083361801487	0	0	0
272	1	1	0.0	0.0	234.82685902179932	0	0	0
273	1	1	0.0	-0.49999999999999994	235.69288442558377	0	0	0
274	1	1	0.0	0.0	236.55890982936822	0	0	0
275	1	1	0.0	-0.49999999999999994	237.42493523315267	0	0	0
276	1	1	0.0	0.0	238.29096063693711	0	0	0
277	1	1	0.0	-0.49999999999999994	239.15698604072156	0	0	0
278	1	1	0.0	0.0	240.023011444506	0	0	0
279	1	1	0.0	-0.49999999999999994	240.88903684829046	0	0	0
280	1	1	0.0	0.0	241.7550622520749	0	0	0
281	1	1	0.0	-0.49999999999999994	242.62108765585936	0	0	0
282	1	1	0.0	0.0	243.4871130596438	0	0	0
283	1	1	0.0	-0.49999999999999994	244.35313846342825	0	0	0
284	1	1	0.0	0.0	245.2191638672127	0	0	0
285	1	1	0.0	-0.49999999999999994	246.08518927099715	0	0	0
286	1	1	0.0	0.0	246.9512146747816	0	0	0
287	1	1	0.0	-0.49999999999999994	247.81724007856604	0	0	0
288	1	1	0.0	0.0	248.6832654823505	0	0	0
289	1	1	0.0	-0.49999999999999994	249.54929088613494	0	0	0
290	1	1	0.0	0.0	250.4153162899194	0	0	0
291	1	1	0.0	-0.49999999999999994	251.28134169370384	0	0	0
292	1	1	0.0	0.0	252.14736709748829	0	0	0
293	1	1	0.0	-0.49999999999999994	253.01339250127273	0	0	0
294	1	1	0.0	0.0	253.87941790505718	0	0	0
295	1	1	0.0	-0.49999999999999994	254.74544330884163	0	0	0
296	1	1	0.0	0.0	255.61146871262608	0	0	0
297	1	1	0.0	-0.49999999999999994	256.4774941164105	0	0	0
298	1	1	0.0	0.0	257.34351952019495	0	0	0
299	1	1	0.0	-0.49999999999999994	258.20954492397937	0	0	0
300	1	1	0.0	0.0	259.0755703277638	0	0	0
301	1	1	0.0	-0.49999999999999994	259.9415957315482	0	0	0
302	1	1	-0.8915926865335819	-0.40190041730148485	260.38368051209846	0	0	0
303	1	1	-1.7831853730671785	-0.5379860768590521	260.8155869540307	0	0	0
304	1	1	-2.674778059600775	-0.23198695586634904	261.14939381326445	0	0	0
305	1	1	-3.566370746134371	-0.3680726154239162	261.5813002551967	0	0	0
306	1	1	-4.457963432667968	-0.06207349443121318	261.91510711443044	0	0	0
307	1	1	-5.349556119201564	-0.1981591539887804	262.3470135563627	0	0	0
308	1	1	-6.24114880573516	0.10783996700392265	262.68082041559643	0	0	0
309	1	1	-7.132741492268757	-0.028245692553644564	263.1127268575287	0	0	0
310	1	1	-8.024334178802354	0.2777534284390585	263.4465337167624	0	0	0
311	1	1	-8.915926865335951	0.14166776888149127	263.8784401586947	0	0	0
312	1	1	-9.807519551869548	0.44766688987419434	264.2122470179284	0	0	0
313	1	1	-10.699112238403146	0.3115812303166271	264.64415345986066	0	0	0
314	1	1	-11.590704924936743	0.6175803513093301	264.9779603190944	0	0	0
315	1	1	-12.48229761147034	0.48149469175176285	265.40986676102665	0	0	0
316	1	1	-13.373890298003937	0.787493812744466	265.7436736202604	0	0	0
317	1	1	-14.265482984537535	0.6514081531868987	266.17558006219264	0	0	0
318	1	1	-15.157075671071132	0.9574072741796018	266.50938692142637	0	0	0
319	1	1	-16.04866835760473	0.8213216146220346	266.9412933633586	0	0	0
320	1	1	-16.940261044138325	1.1273207356147377	267.27510022259236	0	0	0
321	1	1	-17.83185373067192	0.9912350760571704	267.7070066645246	0	0	0
322	1	1	-18.723446417205516	1.2972341970498735	268.04081352375835	0	0	0
323	1	1	-19.61503910373911	1.1611485374923063	268.4727199656906	0	0	0
324	1	1	-20.506631790272706	1.4671476584850094	268.80652682492433	0	0	0
325	1	1	-21.398224476806302	1.3310619989274421	269.2384332668566	0	0	0
326	1	1	-22.289817163339897	1.6370611199201452	269.5722401260903	0	0	0
327	1	1	-23.181409849873493	1.500975460362578	270.0041465680226	0	0	0
328	1	1	-24.07300253640709	1.806974581355281	270.3379534272563	0	0	0
329	1	1	-24.964595222940684	1.6708889217977139	270.76985986918856	0	0	0
330	1	1	-25.85618790947428	1.976888042790417	271.1036667284223	0	0	0
331	1	1	-26.747780596007875	1.8408023832328497	271.53557317035455	0	0	0
332	1	1	-27.63937328254147	2.146801504225553	271.8693800295883	0	0	0
333	1	1	-28.530965969075066	2.0107158446679856	272.30128647152054	0	0	0
334	1	1	-29.42255865560866	2.3167149656606885	272.6350933307543	0	0	0
335	1	1	-30.314151342142257	2.1806293061031212	273.06699977268653	0	0	0
336	1	1	-31.205744028675852	2.486628427095824	273.40080663192026	0	0	0
337	1	1	-32.09733671520945	2.350542767538257	273.8327130738525	0	0	0
338	1	1	-32.98892940174305	2.6565418885309597	274.16651993308625	0	0	0
339	1	1	-33.88052208827665	2.5204562289733925	274.5984263750185	0	0	0
340	1	1	-34.77211477481025	2.8264553499660954	274.93223323425224	0	0	0
341	1	1	-35.66370746134385	2.690369690408528	275.3641396761845	0	0	0
342	1	1	-36.555300147877446	2.996368811401231	275.6979465354182	0	0	0
343	1	1	-37.446892834411045	2.8602831518436638	276.1298529773505	0	0	0
344	1	1	-38.338485520944644	3.1662822728363667	276.4636598365842	0	0	0
345	1	1	-39.23007820747824	3.0301966132787994	276.89556627851647	0	0	0
346	1	1	-40.12167089401184	3.3361957342715023	277.2293731377502	0	0	0
347	1	1	-41.01326358054544	3.200110074713935	277.66127957968246	0	0	0
348	1	1	-41.90485626707904	3.506109195706638	277.9950864389162	0	0	0
349	1	1	-42.79644895361264	3.3700235361490707	278.42699288084845	0	0	0
350	1	1	-43.68804164014624	3.6760226571417736	278.7607997400822	0	0	0
351	1	1	-44.57963432667984	3.5399369975842063	279.19270618201443	0	0	0
352	1	1	-45.471227013213436	3.845936118576909	279.52651304124817	0	0	0
353	1	1	-46.362819699747035	3.709850459019342	279.9584194831804	0	0	0
354	1	1	-47.254412386280634	4.015849580012045	280.29222634241415	0	0	0
355	1	1	-48.14600507281423	3.8797639204544776	280.7241327843464	0	0	0
356	1	1	-49.03759775934783	4.1857630414471805	281.05793964358014	0	0	0
357	1	1	-49.92919044588143	4.049677381889613	281.4898460855124	0	0	0
358	1	1	-50.82078313241503	4.355676502882316	281.82365294474613	0	0	0
359	1	1	-51.71237581894863	4.219590843324749	282.2555593866784	0	0	0
360	1	1	-52.60396850548223	4.525589964317452	282.5893662459121	0	0	0
361	1	1	-53.49556119201583	4.3895043047598845	283.0212726878444	0	0	0
362	1	1	-54.38715387854943	4.695503425752587	283.3550795470781	0	0	0
363	1	1	-55.278746565083026	4.55941776619502	283.78698598901036	0	0	0
364	1	1	-56.170339251616625	4.865416887187723	284.1207928482441	0	0	0
365	1	1	-57.061931938150224	4.729331227630156	284.55269929017635	0	0	0
366	1	1	-57.95352462468382	5.035330348622859	284.8865061494101	0	0	0
367	1	1	-58.84511731121742	4.899244689065291	285.31841259134234	0	0	0
368	1	1	-59.73670999775102	5.205243810057994	285.65221945057607	0	0	0
369	1	1	-60.62830268428462	5.069158150500427	286.0841258925083	0	0	0
370	1	1	-61.51989537081822	5.37515727149313	286.41793275174206	0	0	0
371	1	1	-62.41148805735182	5.239071611935563	286.8498391936743	0	0	0
372	1	1	-63.30308074388542	5.545070732928266	287.18364605290805	0	0	0
373	1	1	-64.19467343041902	5.408985073370698	287.6155524948403	0	0	0
374	1	1	-65.08626611695261	5.714984194363401	287.94935935407403	0	0	0
375	1	1	-65.97785880348621	5.578898534805834	288.3812657960063	0	0	0
376	1	1	-66.86945149001981	5.884897655798537	288.71507265524	0	0	0
377	1	1	-67.76104417655341	5.74881199624097	289.1469790971723	0	0	0
378	1	1	-68.65263686308701	6.0548111172336725	289.480785956406	0	0	0
379	1	1	-69.54422954962061	5.918725457676105	289.91269239833827	0	0	0
380	1	1	-70.43582223615421	6.224724578668808	290.246499257572	0	0	0
381	1	1	-71.32741492268781	6.088638919111241	290.67840569950425	0	0	0
382	1	1	-72.2190076092214	6.394638040103944	291.012212558738	0	0	0
383	1	1	-73.110600295755	6.2585523805463765	291.44411900067024	0	0	0
384	1	1	-74.0021929822886	6.564551501539079	291.777925859904	0	0	0
385	1	1	-74.8937856688222	6.428465841981512	292.20983230183623	0	0	0
386	1	1	-75.7853783553558	6.734464962974215	292.54363916106996	0	0	0
387	1	1	-76.6769710418894	6.598379303416648	292.9755456030022	0	0	0
388	1	1	-77.568563728423	6.904378424409351	293.30935246223595	0	0	0
389	1	1	-78.4601564149566	6.768292764851783	293.7412589041682	0	0	0
390	1	1	-79.3517491014902	7.074291885844486	294.07506576340194	0	0	0
391	1	1	-80.2433417880238	6.938206226286919	294.5069722053342	0	0	0
392	1	1	-81.1349344745574	7.244205347279622	294.8407790645679	0	0	0
393	1	1	-82.026527161091	7.108119687722055	295.2726855065002	0	0	0
394	1	1	-82.9181198476246	7.414118808714758	295.6064923657339	0	0	0
395	1	1	-83.8097125341582	7.27803314915719	296.03839880766617	0	0	0
396	1	1	-84.7013052206918	7.584032270149893	296.3722056668999	0	0	0
397	1	1	-85.59289790722539	7.447946610592326	296.80411210883216	0	0	0
398	1	1	-86.48449059375899	7.753945731585029	297.1379189680659	0	0	0
399	1	1	-87.37608328029259	7.617860072027462	297.56982540999815	0	0	0
400	1	1	-88.26767596682619	7.9238591930201645	297.9036322692319	0	0	0
401	1	1	-89.15926865335979	7.787773533462597	298.33553871116413	0	0	0
402	1	1	-90.05086133989339	8.0937726544553	298.66934557039787	0	0	0
403	1	1	-90.94245402642699	7.957686994897733	299.1012520123301	0	0	0
404	1	1	-91.83404671296059	8.263686115890437	299.43505887156385	0	0	0
405	1	1	-92.72563939949418	8.12760045633287	299.8669653134961	0	0	0
406	1	1	-93.61723208602778	8.433599577325573	300.20077217272984	0	0	0
407	1	1	-94.50882477256138	8.297513917768006	300.6326786146621	0	0	0
408	1	1	-95.40041745909498	8.60351303876071	300.96648547389583	0	0	0
409	1	1	-96.29201014562858	8.467427379203142	301.3983919158281	0	0	0
410	1	1	-97.18360283216218	8.773426500195846	301.7321987750618	0	0	0
411	1	1	-98.07519551869578	8.637340840638279	302.1641052169941	0	0	0
412	1	1	-98.96678820522938	8.943339961630983	302.4979120762278	0	0	0
413	1	1	-99.85838089176298	8.807254302073416	302.92981851816006	0	0	0
414	1	1	-100.74997357829658	9.11325342306612	303.2636253773938	0	0	0
415	1	1	-101.64156626483017	8.977167763508552	303.69553181932605	0	0	0
416	1	1	-102.53315895136377	9.283166884501256	304.0293386785598	0	0	0
417	1	1	-103.42475163789737	9.147081224943689	304.46124512049204	0	0	0
418	1	1	-104.31634432443097	9.453080345936392	304.79505197972577	0	0	0
419	1	1	-105.20793701096457	9.316994686378825	305.226958421658	0	0	0
420	1	1	-106.09952969749817	9.622993807371529	305.56076528089176	0	0	0
421	1	1	-106.99112238403177	9.486908147813962	305.992671722824	0	0	0
422	1	1	-107.88271507056537	9.792907268806665	306.32647858205775	0	0	0
423	1	1	-108.77430775709897	9.656821609249098	306.75838502399	0	0	0
424	1	1	-109.66590044363257	9.962820730241802	307.09219188322373	0	0	0
425	1	1	-110.55749313016616	9.826735070684235	307.524098325156	0	0	0
426	1	1	-111.44908581669976	10.132734191676938	307.8579051843897	0	0	0
427	1	1	-112.34067850323336	9.996648532119371	308.289811626322	0	0	0
428	1	1	-113.23227118976696	10.302647653112075	308.6236184855557	0	0	0
429	1	1	-114.12386387630056	10.166561993554508	309.05552492748797	0	0	0
430	1	1	-115.01545656283416	10.472561114547212	309.3893317867217	0	0	0
431	1	1	-115.90704924936776	10.336475454989644	309.82123822865395	0	0	0
432	1	1	-116.79864193590136	10.642474575982348	310.1550450878877	0	0	0
433	1	1	-117.69023462243496	10.50638891642478	310.58695152981994	0	0	0
434	1	1	-118.58182730896856	10.812388037417485	310.9207583890537	0	0	0
435	1	1	-119.47341999550216	10.676302377859917	311.35266483098593	0	0	0
436	1	1	-120.36501268203575	10.982301498852621	311.68647169021966	0	0	0
437	1	1	-121.25660536856935	10.846215839295054	312.1183781321519	0	0	0
438	1	1	-122.14819805510295	11.152214960287758	312.45218499138565	0	0	0
439	1	1	-123.03979074163655	11.01612930073019	312.8840914333179	0	0	0
440	1	1	-123.93138342817015	11.322128421722894	313.21789829255164	0	0	0
441	1	1	-124.82297611470375	11.186042762165327	313.6498047344839	0	0	0
442	1	1	-125.71456880123735	11.49204188315803	313.9836115937176	0	0	0
443	1	1	-126.60616148777095	11.355956223600463	314.4155180356499	0	0	0
444	1	1	-127.49775417430455	11.661955344593167	314.7493248948836	0	0	0
445	1	1	-128.38934686083815	11.5258696850356	315.18123133681587	0	0	0
446	1	1	-129.28093954737173	11.831868806028304	315.5150381960496	0	0	0
447	1	1	-130.17253223390532	11.695783146470736	315.94694463798186	0	0	0
448	1	1	-131.0641249204389	12.00178226746344	316.2807514972156	0	0	0
449	1	1	-131.95571760697248	11.865696607905873	316.71265793914785	0	0	0
450	1	1	-132.84731029350607	12.171695728898577	317.0464647983816	0	0	0
451	1	1	-133.73890298003965	12.03561006934101	317.47837124031383	0	0	0
452	1	1	-134.63049566657324	12.341609190333713	317.81217809954757	0	0	0
453	1	1	-135.52208835310682	12.205523530776146	318.2440845414798	0	0	0
454	1	1	-136.4136810396404	12.51152265176885	318.57789140071355	0	0	0
455	1	1	-137.305273726174	12.375436992211283	319.0097978426458	0	0	0
456	1	1	-138.19686641270758	12.681436113203986	319.34360470187954	0	0	0
457	1	1	-139.08845909924116	12.545350453646419	319.7755111438118	0	0	0
458	1	1	-139.98005178577475	12.851349574639123	320.10931800304553	0	0	0
459	1	1	-140.87164447230833	12.715263915081556	320.5412244449778	0	0	0
460	1	1	-141.76323715884192	13.02126303607426	320.8750313042115	0	0	0
461	1	1	-142.6548298453755	12.885177376516692	321.3069377461438	0	0	0
462	1	1	-143.5464225319091	13.191176497509396	321.6407446053775	0	0	0
463	1	1	-144.43801521844267	13.055090837951829	322.07265104730976	0	0	0
464	1	1	-145.32960790497626	13.361089958944532	322.4064579065435	0	0	0
465	1	1	-146.22120059150984	13.225004299386965	322.83836434847575	0	0	0
466	1	1	-147.11279327804343	13.531003420379669	323.1721712077095	0	0	0
467	1	1	-148.004385964577	13.394917760822102	323.60407764964174	0	0	0
468	1	1	-148.8959786511106	13.700916881814805	323.93788450887547	0	0	0
469	1	1	-149.78757133764418	13.564831222257238	324.3697909508077	0	0	0
470	1	1	-150.67916402417777	13.870830343249942	324.70359781004146	0	0	0
471	1	1	-151.57075671071135	13.734744683692375	325.1355042519737	0	0	0
472	1	1	-152.46234939724494	14.040743804685079	325.46931111120745	0	0	0
473	1	1	-153.35394208377852	13.904658145127511	325.9012175531397	0	0	0
474	1	1	-154.2455347703121	14.210657266120215	326.23502441237343	0	0	0
475	1	1	-155.1371274568457	14.074571606562648	326.6669308543057	0	0	0
476	1	1	-156.02872014337927	14.380570727555352	327.0007377135394	0	0	0
477	1	1	-156.92031282991286	14.244485067997784	327.4326441554717	0	0	0
478	1	1	-157.81190551644644	14.550484188990488	327.7664510147054	0	0	0
479	1	1	-158.70349820298003	14.41439852943292	328.19835745663767	0	0	0
480	1	1	-159.5950908895136	14.720397650425625	328.5321643158714	0	0	0
481	1	1	-160.4866835760472	14.584311990868057	328.96407075780365	0	0	0
482	1	1	-161.37827626258078	14.890311111860761	329.2978776170374	0	0	0
483	1	1	-162.26986894911437	14.754225452303194	329.72978405896964	0	0	0
484	1	1	-163.16146163564795	15.060224573295898	330.0635909182034	0	0	0
485	1	1	-164.05305432218154	14.92413891373833	330.49549736013563	0	0	0
486	1	1	-164.94464700871512	15.230138034731034	330.82930421936936	0	0	0
487	1	1	-165.8362396952487	15.094052375173467	331.2612106613016	0	0	0
488	1	1	-166.7278323817823	15.40005149616617	331.59501752053535	0	0	0
489	1	1	-167.61942506831588	15.263965836608604	332.0269239624676	0	0	0
490	1	1	-168.51101775484946	15.569964957601307	332.36073082170134	0	0	0
491	1	1	-169.40261044138305	15.43387929804374	332.7926372636336	0	0	0
492	1	1	-170.29420312791663	15.739878419036444	333.1264441228673	0	0	0
493	1	1	-171.18579581445022	15.603792759478877	333.5583505647996	0	0	0
494	1	1	-172.0773885009838	15.90979188047158	333.8921574240333	0	0	0
495	1	1	-172.9689811875174	15.773706220914013	334.32406386596557	0	0	0
496	1	1	-173.86057387405097	16.079705341906717	334.6578707251993	0	0	0
497	1	1	-174.75216656058456	15.94361968234915	335.08977716713156	0	0	0
498	1	1	-175.64375924711814	16.249618803341853	335.4235840263653	0	0	0
499	1	1	-176.53535193365173	16.113533143784288	335.85549046829755	0	0	0
500	1	1	-177.4269446201853	16.41953226477699	336.1892973275313	0	0	0
501	1	1	-178.3185373067189	16.283446605219424	336.62120376946353	0	0	0
502	1	1	-179.21012999325248	16.589445726212126	336.95501062869727	0	0	0
503	1	1	-180.10172267978606	16.45336006665456	337.3869170706295	0	0	0
504	1	1	-180.99331536631965	16.759359187647263	337.72072392986325	0	0	0
505	1	1	-181.88490805285323	16.623273528089697	338.1526303717955	0	0	0
506	1	1	-182.77650073938682	16.9292726490824	338.48643723102924	0	0	0
507	1	1	-183.6680934259204	16.793186989524834	338.9183436729615	0	0	0
508	1	1	-184.559686112454	17.099186110517536	339.25215053219523	0	0	0
509	1	1	-185.45127879898757	16.96310045095997	339.6840569741275	0	0	0
510	1	1	-186.34287148552116	17.269099571952673	340.0178638333612	0	0	0
511	1	1	-187.23446417205474	17.133013912395107	340.4497702752935	0	0	0
512	1	1	-188.12605685858833	17.43901303338781	340.7835771345272	0	0	0
513	1	1	-189.0176495451219	17.302927373830244	341.21548357645946	0	0	0
514	1	1	-189.9092422316555	17.608926494822946	341.5492904356932	0	0	0
515	1	1	-190.80083491818908	17.47284083526538	341.98119687762545	0	0	0
516	1	1	-191.69242760472267	17.778839956258082	342.3150037368592	0	0	0
517	1	1	-192.58402029125625	17.642754296700517	342.74691017879144	0	0	0