ITEM: TIMESTEP
0
ITEM: NUMBER OF ATOMS
293
ITEM: BOX BOUNDS pp pp pp
-1.0000000000000000e+03 1.0000000000000000e+03
-1.0000000000000000e+03 1.0000000000000000e+03
-1.0000000000000000e+03 1.0000000000000000e+03
ITEM: ATOMS id x y z ix iy iz
144 24.41673 11.11038 -0.51153 0 0 0
145 24.14609 11.97811 -0.92843 0 0 0
146 23.87546 12.05092 -1.88836 0 0 0
147 23.60482 12.91865 -2.30526 0 0 0
1 0.00000 0.00000 0.00000 0 0 0
2 0.00000 0.00000 1.00000 0 0 0
3 0.00000 -0.50000 1.86603 0 0 0
4 0.00000 0.00000 2.73205 0 0 0
5 0.00000 -0.50000 3.59808 0 0 0
6 0.00000 0.00000 4.46410 0 0 0
7 0.00000 -0.50000 5.33013 0 0 0
8 0.00000 0.00000 6.19615 0 0 0
9 0.00000 -0.50000 7.06218 0 0 0
10 0.00000 0.00000 7.92820 0 0 0
11 0.00000 -0.50000 8.79423 0 0 0
12 0.00000 0.00000 9.66025 0 0 0
13 0.00000 -0.50000 10.52628 0 0 0
14 0.00000 0.00000 11.39230 0 0 0
15 0.00000 -0.50000 12.25833 0 0 0
16 0.00000 0.00000 13.12436 0 0 0
17 0.00000 -0.50000 13.99038 0 0 0
18 0.00000 0.00000 14.85641 0 0 0
19 0.00000 -0.50000 15.72243 0 0 0
20 -0.21113 -1.46251 15.55217 0 0 0
21 -0.42227 -2.21095 14.92346 0 0 0
22 -0.63340 -3.12964 15.25727 0 0 0
23 -0.84454 -3.87807 14.62856 0 0 0
24 -1.05567 -4.79676 14.96237 0 0 0
25 -1.26680 -5.54519 14.33366 0 0 0
26 -1.47794 -6.46388 14.66747 0 0 0
27 -1.68907 -7.21232 14.03876 0 0 0
28 -1.90021 -8.13101 14.37257 0 0 0
29 -2.11134 -8.87944 13.74386 0 0 0
30 -2.32247 -9.79813 14.07767 0 0 0
31 -2.53361 -10.54656 13.44896 0 0 0
32 -2.74474 -11.46526 13.78277 0 0 0
33 -2.95588 -12.21369 13.15406 0 0 0
34 -3.16701 -13.13238 13.48787 0 0 0
35 -3.37815 -13.88081 12.85916 0 0 0
36 -3.58928 -14.79950 13.19297 0 0 0
37 -3.80041 -15.54793 12.56426 0 0 0
38 -0.69004 -0.11075 16.33261 0 0 0
39 -1.38009 -0.07874 17.05567 0 0 0
40 -2.07013 0.56346 17.38948 0 0 0
41 -2.76018 0.59547 18.11254 0 0 0
42 -3.45022 1.23766 18.44635 0 0 0
43 -4.14026 1.26967 19.16941 0 0 0
44 -4.83031 1.91187 19.50321 0 0 0
45 -5.52035 1.94388 20.22627 0 0 0
46 -6.21039 2.58607 20.56008 0 0 0
47 -6.90044 2.61808 21.28314 0 0 0
48 -7.59048 3.26028 21.61695 0 0 0
49 -8.28053 3.29229 22.34000 0 0 0
50 -8.97057 3.93448 22.67381 0 0 0
51 -9.66061 3.96649 23.39687 0 0 0
52 -10.35066 4.60869 23.73068 0 0 0
53 -11.04070 4.64070 24.45374 0 0 0
54 -11.73074 5.28289 24.78754 0 0 0
55 -12.42079 5.31491 25.51060 0 0 0
56 0.90118 -0.42745 16.14977 0 0 0
57 1.80236 -0.57828 16.55612 0 0 0
58 2.70353 -0.30179 16.88993 0 0 0
59 3.60471 -0.45262 17.29629 0 0 0
60 4.50589 -0.17612 17.63010 0 0 0
61 5.40707 -0.32696 18.03645 0 0 0
62 6.30824 -0.05046 18.37026 0 0 0
63 7.20942 -0.20130 18.77662 0 0 0
64 8.11060 0.07520 19.11043 0 0 0
65 9.01178 -0.07563 19.51679 0 0 0
66 9.91296 0.20087 19.85059 0 0 0
67 10.81413 0.05003 20.25695 0 0 0
68 11.71531 0.32653 20.59076 0 0 0
69 12.61649 0.17569 20.99712 0 0 0
70 13.51767 0.45219 21.33092 0 0 0
71 14.41885 0.30135 21.73728 0 0 0
72 15.32002 0.57785 22.07109 0 0 0
73 16.22120 0.42702 22.47745 0 0 0
74 17.12238 0.70352 22.81125 0 0 0
75 17.51805 -0.03610 23.35569 0 0 0
76 17.91372 -0.94884 23.45738 0 0 0
77 18.30940 -1.31715 24.29869 0 0 0
78 18.70507 -2.22989 24.40038 0 0 0
79 19.10074 -2.59819 25.24169 0 0 0
80 19.49641 -3.51094 25.34338 0 0 0
81 19.89209 -3.87924 26.18469 0 0 0
82 20.28776 -4.79199 26.28638 0 0 0
83 20.68343 -5.16029 27.12768 0 0 0
84 21.07910 -6.07304 27.22938 0 0 0
85 21.47478 -6.44134 28.07068 0 0 0
86 21.87045 -7.35408 28.17237 0 0 0
87 22.26612 -7.72239 29.01368 0 0 0
88 22.66179 -8.63513 29.11537 0 0 0
89 23.05747 -9.00344 29.95668 0 0 0
90 23.45314 -9.91618 30.05837 0 0 0
91 23.84881 -10.28449 30.89967 0 0 0
92 24.24448 -11.19723 31.00137 0 0 0
93 17.03159 1.52229 23.37815 0 0 0
94 16.94080 1.94792 24.27848 0 0 0
95 16.85002 2.94045 24.36003 0 0 0
96 16.75923 3.36608 25.26036 0 0 0
97 16.66844 4.35861 25.34192 0 0 0
98 16.57765 4.78424 26.24225 0 0 0
99 16.48687 5.77676 26.32380 0 0 0
100 16.39608 6.20240 27.22414 0 0 0
101 16.30529 7.19492 27.30569 0 0 0
102 16.21450 7.62055 28.20602 0 0 0
103 16.12372 8.61308 28.28758 0 0 0
104 16.03293 9.03871 29.18791 0 0 0
105 15.94214 10.03124 29.26946 0 0 0
106 15.85136 10.45687 30.16980 0 0 0
107 15.76057 11.44939 30.25135 0 0 0
108 15.66978 11.87503 31.15168 0 0 0
109 15.57899 12.86755 31.23324 0 0 0
110 15.48821 13.29319 32.13357 0 0 0
111 17.71995 0.90125 22.03420 0 0 0
112 18.31752 1.46101 21.46012 0 0 0
113 18.91510 1.24373 20.68831 0 0 0
114 19.51267 1.80349 20.11423 0 0 0
115 20.11024 1.58621 19.34242 0 0 0
116 20.70782 2.14597 18.76834 0 0 0
117 21.30539 1.92869 17.99652 0 0 0
118 21.90296 2.48846 17.42244 0 0 0
119 22.50054 2.27117 16.65063 0 0 0
120 23.09811 2.83094 16.07655 0 0 0
121 23.69568 2.61365 15.30474 0 0 0
122 24.29325 3.17342 14.73066 0 0 0
123 24.89083 2.95613 13.95885 0 0 0
124 25.48840 3.51590 13.38477 0 0 0
125 26.08597 3.29861 12.61295 0 0 0
126 26.68355 3.85838 12.03887 0 0 0
127 27.28112 3.64109 11.26706 0 0 0
128 27.87869 4.20086 10.69298 0 0 0
129 28.47627 3.98357 9.92117 0 0 0
130 28.20563 4.52660 9.12626 0 0 0
131 27.93499 5.39432 8.70935 0 0 0
132 27.66436 5.46714 7.74943 0 0 0
133 27.39372 6.33486 7.33253 0 0 0
134 27.12309 6.40768 6.37260 0 0 0
135 26.85245 7.27540 5.95570 0 0 0
136 26.58182 7.34822 4.99578 0 0 0
137 26.31118 8.21594 4.57887 0 0 0
138 26.04054 8.28876 3.61895 0 0 0
139 25.76991 9.15648 3.20205 0 0 0
140 25.49927 9.22930 2.24212 0 0 0
141 25.22864 10.09703 1.82522 0 0 0
142 24.95800 10.16984 0.86530 0 0 0
143 24.68737 11.03757 0.44839 0 0 0
148 28.39825 3.01099 9.70208 0 0 0
149 28.32024 2.27826 9.02605 0 0 0
150 28.24222 1.32644 9.32260 0 0 0
151 28.16421 0.59370 8.64657 0 0 0
152 28.08620 -0.35812 8.94312 0 0 0
153 28.00818 -1.09086 8.26709 0 0 0
154 27.93017 -2.04268 8.56364 0 0 0
155 27.85216 -2.77541 7.88761 0 0 0
156 27.77414 -3.72724 8.18416 0 0 0
157 27.69613 -4.45997 7.50813 0 0 0
158 27.61811 -5.41180 7.80468 0 0 0
159 27.54010 -6.14453 7.12865 0 0 0
160 27.46209 -7.09636 7.42520 0 0 0
161 27.38407 -7.82909 6.74917 0 0 0
162 27.30606 -8.78091 7.04572 0 0 0
163 27.22805 -9.51365 6.36969 0 0 0
164 27.15003 -10.46547 6.66624 0 0 0
165 27.07202 -11.19821 5.99021 0 0 0
166 29.42334 4.19554 10.16226 0 0 0
167 30.37041 4.25856 10.47704 0 0 0
168 31.31748 4.56267 10.57985 0 0 0
169 32.26455 4.62569 10.89463 0 0 0
170 33.21162 4.92981 10.99744 0 0 0
171 34.15869 4.99282 11.31222 0 0 0
172 35.10576 5.29694 11.41503 0 0 0
173 36.05283 5.35996 11.72981 0 0 0
174 36.99991 5.66407 11.83262 0 0 0
175 37.94698 5.72709 12.14740 0 0 0
176 38.89405 6.03121 12.25021 0 0 0
177 39.84112 6.09423 12.56499 0 0 0
178 40.78819 6.39834 12.66780 0 0 0
179 41.73526 6.46136 12.98258 0 0 0
180 42.68233 6.76547 13.08539 0 0 0
181 43.62940 6.82849 13.40017 0 0 0
182 44.57648 7.13261 13.50298 0 0 0
183 45.52355 7.19563 13.81776 0 0 0
184 46.47062 7.49974 13.92057 0 0 0
185 46.59010 8.38032 13.46198 0 0 0
186 46.70958 9.37222 13.50512 0 0 0
187 46.82907 9.90553 12.66768 0 0 0
188 46.94855 10.89743 12.71082 0 0 0
189 47.06803 11.43073 11.87338 0 0 0
190 47.18752 12.42263 11.91652 0 0 0
191 47.30700 12.95594 11.07908 0 0 0
192 47.42648 13.94784 11.12221 0 0 0
193 47.54596 14.48115 10.28477 0 0 0
194 47.66545 15.47305 10.32791 0 0 0
195 47.78493 16.00635 9.49047 0 0 0
196 47.90441 16.99825 9.53361 0 0 0
197 48.02390 17.53156 8.69617 0 0 0
198 48.14338 18.52346 8.73931 0 0 0
199 48.26286 19.05677 7.90187 0 0 0
200 48.38235 20.04867 7.94501 0 0 0
201 48.50183 20.58197 7.10757 0 0 0
202 48.62131 21.57387 7.15070 0 0 0
203 47.08427 6.82496 13.51058 0 0 0
204 47.69792 6.44557 12.81812 0 0 0
205 48.31157 5.65620 12.80044 0 0 0
206 48.92522 5.27681 12.10798 0 0 0
207 49.53888 4.48743 12.09031 0 0 0
208 50.15253 4.10805 11.39785 0 0 0
209 50.76618 3.31867 11.38017 0 0 0
210 51.37983 2.93929 10.68771 0 0 0
211 51.99348 2.14991 10.67003 0 0 0
212 52.60713 1.77053 9.97757 0 0 0
213 53.22078 0.98115 9.95990 0 0 0
214 53.83444 0.60177 9.26744 0 0 0
215 54.44809 -0.18761 9.24976 0 0 0
216 55.06174 -0.56700 8.55730 0 0 0
217 55.67539 -1.35637 8.53963 0 0 0
218 56.28904 -1.73576 7.84717 0 0 0
219 56.90269 -2.52514 7.82949 0 0 0
220 57.51634 -2.90452 7.13703 0 0 0
221 46.68590 7.59849 14.89212 0 0 0
222 46.90118 7.19824 15.78288 0 0 0
223 47.11646 7.76954 16.57489 0 0 0
224 47.33175 7.36929 17.46565 0 0 0
225 47.54703 7.94058 18.25765 0 0 0
226 47.76231 7.54033 19.14841 0 0 0
227 47.97759 8.11163 19.94042 0 0 0
228 48.19288 7.71138 20.83118 0 0 0
229 48.40816 8.28267 21.62319 0 0 0
230 48.62344 7.88242 22.51395 0 0 0
231 48.83872 8.45372 23.30595 0 0 0
232 49.05400 8.05347 24.19671 0 0 0
233 49.26929 8.62476 24.98872 0 0 0
234 49.48457 8.22451 25.87948 0 0 0
235 49.69985 8.79581 26.67149 0 0 0
236 49.91513 8.39556 27.56225 0 0 0
237 50.13041 8.96685 28.35425 0 0 0
238 50.34570 8.56660 29.24501 0 0 0
239 50.56098 9.13790 30.03702 0 0 0
240 49.72191 9.55622 30.38482 0 0 0
241 48.88283 9.74459 30.89519 0 0 0
242 48.04376 10.28076 30.98724 0 0 0
243 47.20468 10.46913 31.49760 0 0 0
244 46.36561 11.00531 31.58965 0 0 0
245 45.52654 11.19368 32.10001 0 0 0
246 44.68746 11.72985 32.19206 0 0 0
247 43.84839 11.91822 32.70242 0 0 0
248 43.00932 12.45440 32.79447 0 0 0
249 42.17024 12.64277 33.30483 0 0 0
250 41.33117 13.17894 33.39688 0 0 0
251 40.49210 13.36731 33.90725 0 0 0
252 39.65302 13.90349 33.99929 0 0 0
253 38.81395 14.09186 34.50966 0 0 0
254 37.97487 14.62803 34.60171 0 0 0
255 37.13580 14.81641 35.11207 0 0 0
256 36.29673 15.35258 35.20412 0 0 0
257 35.45765 15.54095 35.71448 0 0 0
258 51.20315 9.85516 29.76656 0 0 0
259 51.84533 10.61155 29.89096 0 0 0
260 52.48751 11.09749 29.29810 0 0 0
261 53.12968 11.85388 29.42250 0 0 0
262 53.77186 12.33982 28.82965 0 0 0
263 54.41403 13.09621 28.95405 0 0 0
264 55.05621 13.58214 28.36119 0 0 0
265 55.69839 14.33854 28.48559 0 0 0
266 56.34056 14.82447 27.89273 0 0 0
267 56.98274 15.58087 28.01713 0 0 0
268 57.62491 16.06680 27.42428 0 0 0
269 58.26709 16.82320 27.54868 0 0 0
270 58.90926 17.30913 26.95582 0 0 0
271 59.55144 18.06552 27.08022 0 0 0
272 60.19362 18.55146 26.48737 0 0 0
273 60.83579 19.30785 26.61177 0 0 0
274 61.47797 19.79379 26.01891 0 0 0
275 62.12014 20.55018 26.14331 0 0 0
276 50.97346 8.57443 30.75281 0 0 0
277 51.38595 7.72856 31.09097 0 0 0
278 51.79844 7.59848 31.99260 0 0 0
279 52.21092 6.75260 32.33076 0 0 0
280 52.62341 6.62252 33.23239 0 0 0
281 53.03589 5.77665 33.57055 0 0 0
282 53.44838 5.64657 34.47218 0 0 0
283 53.86087 4.80069 34.81034 0 0 0
284 54.27335 4.67061 35.71197 0 0 0
285 54.68584 3.82474 36.05013 0 0 0
286 55.09832 3.69465 36.95176 0 0 0
287 55.51081 2.84878 37.28992 0 0 0
288 55.92330 2.71870 38.19155 0 0 0
289 56.33578 1.87283 38.52971 0 0 0
290 56.74827 1.74274 39.43134 0 0 0
291 57.16075 0.89687 39.76950 0 0 0
292 57.57324 0.76679 40.67113 0 0 0
293 57.98573 -0.07909 41.00929 0 0 0
ITEM: TIMESTEP
1000
ITEM: NUMBER OF ATOMS
293
ITEM: BOX BOUNDS pp pp pp
-1.0000000000000000e+03 1.0000000000000000e+03
-1.0000000000000000e+03 1.0000000000000000e+03
-1.0000000000000000e+03 1.0000000000000000e+03
ITEM: ATOMS id x y z ix iy iz
293 57.29062 4.15753 38.47398 0 0 0
2 0.96733 1.32338 5.46569 0 0 0
3 1.73687 1.24279 6.01199 0 0 0
4 0.96824 1.05986 6.67442 0 0 0
5 0.17711 1.23916 7.19431 0 0 0
6 -0.28230 1.77709 7.93715 0 0 0
7 -1.00679 1.13271 8.25421 0 0 0
8 -1.10551 0.08988 8.57939 0 0 0
9 -0.93346 -0.56498 9.26499 0 0 0
10 -0.93098 -1.08750 10.06709 0 0 0
11 -1.26936 -1.71745 10.67757 0 0 0
12 -0.90712 -1.76428 11.65113 0 0 0
13 -0.54470 -1.38582 12.56820 0 0 0
14 -0.90685 -0.83965 13.32829 0 0 0
15 -0.98243 -1.73524 13.77033 0 0 0
16 -0.14298 -2.09788 14.19385 0 0 0
17 0.21210 -1.91708 15.21362 0 0 0
18 0.55794 -1.30874 15.95966 0 0 0
19 0.83355 -1.10015 16.85250 0 0 0
20 0.66533 -2.11322 16.89812 0 0 0
21 0.40897 -2.90929 16.45633 0 0 0
22 0.25486 -3.34365 15.54313 0 0 0
23 -0.26553 -4.09539 15.87328 0 0 0
24 -0.81882 -4.87157 16.05197 0 0 0
25 -1.46923 -5.53206 15.99185 0 0 0
26 -1.61628 -6.49062 16.31820 0 0 0
27 -2.47839 -6.87294 16.16279 0 0 0
28 -2.57651 -7.31742 15.31747 0 0 0
29 -2.90156 -8.04558 14.63186 0 0 0
30 -3.55137 -8.69086 14.88484 0 0 0
31 -4.41129 -9.22890 15.32029 0 0 0
32 -4.93671 -9.47981 14.50569 0 0 0
33 -4.44227 -10.27865 14.81678 0 0 0
34 -4.14952 -10.21456 15.79981 0 0 0
35 -3.16062 -10.09231 15.44943 0 0 0
36 -2.97917 -9.70497 14.61997 0 0 0
37 -2.31505 -9.34269 13.99377 0 0 0
38 -0.00700 -0.68206 17.08813 0 0 0
39 -0.59103 -1.11024 17.70899 0 0 0
40 -1.01456 -1.77952 18.27323 0 0 0
41 -2.03162 -1.73183 18.32946 0 0 0
42 -2.81063 -1.22401 18.52805 0 0 0
43 -3.72230 -1.03568 18.69958 0 0 0
44 -4.08208 -0.20848 19.10058 0 0 0
45 -4.83283 0.26652 19.44517 0 0 0
46 -5.27515 0.94517 19.98505 0 0 0
47 -4.96159 1.91421 20.19270 0 0 0
48 -4.93417 2.66072 19.58173 0 0 0
49 -5.42622 3.43736 19.59312 0 0 0
50 -5.88513 3.87971 20.34455 0 0 0
51 -5.82043 4.75042 20.84289 0 0 0
52 -6.43760 5.43324 21.17951 0 0 0
53 -6.67495 6.00773 21.89594 0 0 0
54 -7.10375 6.82706 21.42512 0 0 0
55 -7.55363 7.22995 22.18349 0 0 0
56 1.78446 -1.32781 16.80792 0 0 0
57 2.69630 -1.29269 17.23423 0 0 0
58 3.47969 -0.84664 17.03298 0 0 0
59 4.26927 -1.08030 17.47986 0 0 0
60 5.18674 -1.29811 17.65796 0 0 0
61 5.95127 -1.13621 18.31927 0 0 0
62 6.78174 -1.23469 18.98690 0 0 0
63 7.50826 -1.13930 19.66610 0 0 0
64 8.40637 -0.67894 19.99378 0 0 0
65 9.07925 -0.05317 20.31132 0 0 0
66 9.98887 -0.09446 20.48807 0 0 0
67 10.87110 0.28014 20.62469 0 0 0
68 11.44779 -0.30037 20.17875 0 0 0
69 12.44093 -0.48336 19.93963 0 0 0
70 13.32603 -0.76539 19.59251 0 0 0
71 14.39534 -0.75085 19.72103 0 0 0
72 15.05319 -0.00143 19.85984 0 0 0
73 15.89179 0.32379 20.22346 0 0 0
74 16.48909 0.51307 20.93764 0 0 0
75 16.64344 0.34011 21.86058 0 0 0
76 17.47531 0.03593 22.36697 0 0 0
77 17.89430 -0.50408 23.12066 0 0 0
78 17.32262 -1.15906 23.67265 0 0 0
79 17.31576 -2.06379 24.05002 0 0 0
80 16.82880 -2.70487 24.69707 0 0 0
81 17.55638 -3.02926 25.32693 0 0 0
82 17.86278 -3.55592 26.24648 0 0 0
83 18.78250 -3.52480 26.60376 0 0 0
84 19.40822 -4.25121 26.71035 0 0 0
85 19.61946 -4.57431 27.65792 0 0 0
86 19.85148 -4.04748 28.53570 0 0 0
87 20.55129 -4.68360 28.84401 0 0 0
88 20.84762 -5.34216 28.15490 0 0 0
89 20.82008 -6.32120 28.36072 0 0 0
90 21.04235 -7.27503 28.38913 0 0 0
91 21.79415 -7.86039 27.98420 0 0 0
92 22.58627 -7.78771 27.44336 0 0 0
93 15.97494 1.27902 21.35158 0 0 0
94 15.89145 2.20598 21.74359 0 0 0
95 15.72525 2.75400 22.43412 0 0 0
96 15.41536 1.86881 22.84425 0 0 0
97 15.74341 2.20051 23.70409 0 0 0
98 15.51621 3.14390 23.70430 0 0 0
99 15.63258 3.90770 24.24729 0 0 0
100 15.98500 4.66293 24.79377 0 0 0
101 15.98728 5.31681 25.56783 0 0 0
102 16.77604 5.83158 26.05789 0 0 0
103 17.29878 6.62601 25.93870 0 0 0
104 16.81273 7.45909 25.88458 0 0 0
105 16.03619 8.00695 25.78333 0 0 0
106 16.32239 8.60449 26.51328 0 0 0
107 15.70947 9.29158 26.75334 0 0 0
108 14.87234 9.69279 26.64563 0 0 0
109 14.57132 9.09081 27.37732 0 0 0
110 14.79242 9.79032 28.04964 0 0 0
111 17.20722 0.90538 20.20357 0 0 0
112 17.82446 1.69334 20.14671 0 0 0
113 18.55001 1.88918 19.45102 0 0 0
114 19.01372 1.89742 18.59453 0 0 0
115 19.72759 1.62093 17.86439 0 0 0
116 20.34524 2.10638 17.32923 0 0 0
117 21.15280 2.02830 16.64181 0 0 0
118 21.75988 2.48143 16.05144 0 0 0
119 22.61232 2.88625 15.64197 0 0 0
120 23.36681 2.53916 15.09052 0 0 0
121 24.00560 2.63167 14.26488 0 0 0
122 24.90589 2.84665 13.95965 0 0 0
123 25.36564 2.41232 13.23590 0 0 0
124 26.12064 2.64287 12.64260 0 0 0
125 26.85445 3.08934 12.02837 0 0 0
126 27.87316 3.25534 12.23098 0 0 0
127 28.33281 3.77755 11.56094 0 0 0
128 29.16946 4.10381 11.06481 0 0 0
129 29.90286 4.58020 10.61056 0 0 0
130 29.30767 4.73407 9.77360 0 0 0
131 28.67153 5.14215 9.24127 0 0 0
132 28.32313 5.48269 8.37670 0 0 0
133 27.83566 6.22166 8.12514 0 0 0
134 26.90242 6.19500 7.77119 0 0 0
135 26.61158 6.90931 7.16359 0 0 0
136 26.76569 7.84863 6.92830 0 0 0
137 27.30035 8.57134 6.43321 0 0 0
138 27.32009 8.72472 5.49150 0 0 0
139 27.03704 9.28318 4.76627 0 0 0
140 26.42816 9.54915 4.02653 0 0 0
141 25.90007 10.06008 3.38354 0 0 0
142 25.89282 11.16452 3.05984 0 0 0
143 25.59445 12.05749 2.77588 0 0 0
148 30.01166 3.63505 10.17402 0 0 0
149 30.60487 3.03397 9.77958 0 0 0
150 30.45198 2.00888 9.77905 0 0 0
151 30.25660 1.19553 10.17915 0 0 0
152 30.68236 0.29197 10.11890 0 0 0
153 31.16860 -0.34714 9.52231 0 0 0
154 31.58796 -1.18572 9.43779 0 0 0
155 31.68853 -2.12216 9.01955 0 0 0
156 31.61219 -2.79040 9.60593 0 0 0
157 30.95522 -3.59560 9.75640 0 0 0
158 30.70766 -4.59881 9.75934 0 0 0
159 30.89297 -5.48998 10.29072 0 0 0
160 30.55982 -6.33637 9.80391 0 0 0
161 30.23864 -7.23882 9.99566 0 0 0
162 30.12880 -7.87281 10.74148 0 0 0
163 30.49962 -8.39482 9.98868 0 0 0
164 29.66763 -8.99618 9.82911 0 0 0
165 29.66529 -9.45539 10.69975 0 0 0
166 30.81424 4.88259 10.84990 0 0 0
167 31.89693 5.01925 10.89010 0 0 0
168 32.47862 4.90905 11.66293 0 0 0
169 33.39459 5.13248 12.06017 0 0 0
170 34.09102 5.49973 11.37706 0 0 0
171 34.97583 5.55777 11.71706 0 0 0
172 35.89935 5.51551 11.99660 0 0 0
173 36.85367 5.47630 11.89541 0 0 0
174 37.58984 5.73985 12.35338 0 0 0
175 38.00098 5.31418 13.12149 0 0 0
176 38.94261 5.39779 12.87699 0 0 0
177 39.92219 5.79285 13.18297 0 0 0
178 40.78841 6.11411 12.93328 0 0 0
179 41.60919 6.66808 12.56996 0 0 0
180 42.33231 6.93606 13.25167 0 0 0
181 42.90244 7.15091 14.04794 0 0 0
182 43.81304 7.34319 14.08207 0 0 0
183 44.77654 7.83131 14.23257 0 0 0
184 45.44864 7.70709 14.92836 0 0 0
185 46.02457 8.38434 14.59563 0 0 0
186 46.77933 8.84162 14.36710 0 0 0
187 47.52529 9.32625 13.77947 0 0 0
188 47.42795 10.32753 13.75255 0 0 0
189 47.06220 11.22830 13.58609 0 0 0
190 47.67080 11.25042 12.63983 0 0 0
191 47.28325 11.49499 11.77903 0 0 0
192 47.01118 12.18467 11.09242 0 0 0
193 46.66477 12.48408 10.20239 0 0 0
194 46.76189 13.14492 9.50399 0 0 0
195 46.80391 14.02688 10.11250 0 0 0
196 46.95981 14.59348 9.43313 0 0 0
197 47.46450 15.40687 9.23907 0 0 0
198 47.06406 15.09778 8.37428 0 0 0
199 47.82068 15.70120 8.13964 0 0 0
200 48.33198 16.49748 8.11532 0 0 0
201 48.60523 17.39710 8.14363 0 0 0
202 49.22862 18.13569 7.98343 0 0 0
203 46.20667 7.22126 14.45902 0 0 0
204 46.32499 6.32477 14.16870 0 0 0
205 46.50918 5.48911 13.76852 0 0 0
206 47.14793 4.75172 13.49815 0 0 0
207 47.75296 4.24220 12.98176 0 0 0
208 48.66322 3.93246 12.60071 0 0 0
209 48.93195 3.29528 11.86139 0 0 0
210 49.39995 2.46159 11.88683 0 0 0
211 49.46715 1.95634 11.00770 0 0 0
212 50.04405 1.35324 10.53634 0 0 0
213 50.95470 1.44262 10.38241 0 0 0
214 51.42043 0.87276 11.01833 0 0 0
215 51.62462 0.26103 11.71926 0 0 0
216 52.52072 -0.26922 11.60147 0 0 0
217 52.91282 -1.16173 11.33582 0 0 0
218 52.78834 -1.93398 10.78619 0 0 0
219 53.43432 -2.30620 11.44238 0 0 0
220 53.74618 -2.40943 12.37910 0 0 0
221 45.95132 7.69409 15.81793 0 0 0
222 46.88598 7.83461 16.20803 0 0 0
223 47.22265 7.41413 17.11749 0 0 0
224 47.73188 7.30796 17.97990 0 0 0
225 48.12888 7.28025 18.91686 0 0 0
226 48.56494 7.25385 19.81561 0 0 0
227 49.34321 7.04970 20.36695 0 0 0
228 49.84471 7.61979 20.97798 0 0 0
229 50.15990 7.77504 21.92863 0 0 0
230 50.76617 7.78506 22.70578 0 0 0
231 51.68341 7.81990 22.23624 0 0 0
232 51.70581 8.44718 23.01520 0 0 0
233 51.70136 8.48759 23.92750 0 0 0
234 52.13828 8.40740 24.87693 0 0 0
235 51.62694 8.18252 25.63172 0 0 0
236 51.98155 8.04264 26.58714 0 0 0
237 51.81961 7.89703 27.51280 0 0 0
238 51.15696 8.46491 28.01222 0 0 0
239 51.39930 9.36308 28.20655 0 0 0
240 50.61276 10.02429 28.13701 0 0 0
241 50.10311 10.07963 29.03687 0 0 0
242 49.65930 10.53529 29.73402 0 0 0
243 48.73077 10.45307 29.49184 0 0 0
244 47.80835 10.29636 29.65863 0 0 0
245 46.88528 10.11443 29.34201 0 0 0
246 46.51378 10.78701 29.92483 0 0 0
247 45.49155 10.89893 30.17324 0 0 0
248 44.90225 11.22808 30.94115 0 0 0
249 44.04477 11.67263 30.76533 0 0 0
250 43.42387 12.16117 31.28857 0 0 0
251 43.08769 12.80025 32.00893 0 0 0
252 42.09851 12.96801 31.90162 0 0 0
253 41.17409 13.19496 32.16228 0 0 0
254 40.34730 13.52032 32.41290 0 0 0
255 39.78534 12.71639 32.46498 0 0 0
256 39.88865 13.05869 33.41790 0 0 0
257 39.68838 13.85252 33.98896 0 0 0
258 51.84693 10.19745 27.84793 0 0 0
259 52.13805 11.11080 27.66122 0 0 0
260 52.64396 11.93798 27.44447 0 0 0
261 52.98177 12.74258 27.94982 0 0 0
262 53.70306 13.38844 27.83607 0 0 0
263 54.59524 13.66994 27.25681 0 0 0
264 55.50149 13.61419 27.40154 0 0 0
265 56.28515 14.19895 27.73318 0 0 0
266 57.15872 13.79166 27.86188 0 0 0
267 57.69251 14.48242 27.34085 0 0 0
268 57.58896 14.73929 28.31001 0 0 0
269 57.47335 15.61325 27.91307 0 0 0
270 58.13582 16.37032 28.17255 0 0 0
271 58.34708 16.04220 29.08903 0 0 0
272 59.32951 15.89449 29.33159 0 0 0
273 59.13956 16.47442 30.15638 0 0 0
274 59.18661 17.53341 29.96512 0 0 0
275 58.29216 17.75812 29.45196 0 0 0
276 50.87605 8.91494 28.95881 0 0 0
277 51.75606 8.78953 29.50246 0 0 0
278 51.83050 8.09097 30.20991 0 0 0
279 52.22279 7.64193 30.98544 0 0 0
280 51.80102 6.75854 31.09874 0 0 0
281 51.04946 6.59781 31.83359 0 0 0
282 51.41745 6.14519 32.63126 0 0 0
283 51.84078 6.09984 33.48338 0 0 0
284 52.47864 5.48197 33.92065 0 0 0
285 53.37986 5.83531 33.85697 0 0 0
286 54.24381 5.80534 34.37250 0 0 0
287 54.88107 5.32028 35.01509 0 0 0
288 55.47946 4.64840 35.25274 0 0 0
289 56.23236 4.99216 35.78939 0 0 0
290 57.05408 4.61292 36.13041 0 0 0
291 57.39459 4.35528 36.99204 0 0 0
292 56.70785 4.10389 37.61832 0 0 0
1 1.61712 1.50213 4.77884 0 0 0
144 25.90824 11.55978 1.98875 0 0 0
145 26.80285 11.78344 1.77504 0 0 0
146 27.21972 11.08619 1.29113 0 0 0
147 27.39585 11.50583 0.39095 0 0 0
ITEM: TIMESTEP
2000
ITEM: NUMBER OF ATOMS
293
ITEM: BOX BOUNDS pp pp pp
-1.0000000000000000e+03 1.0000000000000000e+03
-1.0000000000000000e+03 1.0000000000000000e+03
-1.0000000000000000e+03 1.0000000000000000e+03
ITEM: ATOMS id x y z ix iy iz
293 53.23412 2.40231 36.33346 0 0 0
2 1.81561 2.07644 6.07332 0 0 0
3 2.38962 1.41927 6.62331 0 0 0
4 1.62675 0.99390 7.09076 0 0 0
5 1.20916 0.03197 7.21094 0 0 0
6 1.20059 -0.63713 7.89507 0 0 0
7 1.19968 -1.58113 8.20013 0 0 0
8 1.51667 -1.74175 9.14759 0 0 0
9 1.28987 -0.84648 9.52857 0 0 0
10 1.23523 0.16956 9.75482 0 0 0
11 1.25912 0.25198 10.81175 0 0 0
12 1.38814 -0.56652 11.30464 0 0 0
13 1.05272 -0.85108 12.24359 0 0 0
14 0.63825 -0.33996 12.95260 0 0 0
15 0.67865 0.35141 13.64222 0 0 0
16 1.50615 0.81259 13.52692 0 0 0
17 1.57889 0.00420 14.09255 0 0 0
18 2.01837 -0.53948 14.81049 0 0 0
19 1.87593 -0.77316 15.73399 0 0 0
20 1.21037 -1.58222 15.62291 0 0 0
21 1.04985 -1.41710 14.72030 0 0 0
22 0.52484 -2.13131 14.04802 0 0 0
23 0.26435 -2.80253 13.40077 0 0 0
24 0.30376 -3.45564 12.63869 0 0 0
25 -0.43880 -4.09202 12.80270 0 0 0
26 -1.19106 -4.49597 13.29324 0 0 0
27 -1.42581 -5.20990 13.99083 0 0 0
28 -2.18996 -5.84851 14.13864 0 0 0
29 -2.44826 -6.77850 13.88610 0 0 0
30 -3.27467 -7.48212 14.22618 0 0 0
31 -3.21040 -8.45687 14.49191 0 0 0
32 -2.95172 -9.32711 14.87375 0 0 0
33 -2.39459 -9.16084 15.63763 0 0 0
34 -1.93913 -9.44797 16.44075 0 0 0
35 -2.15451 -9.62350 17.38515 0 0 0
36 -2.32294 -10.31012 18.10143 0 0 0
37 -2.85805 -10.98039 18.72280 0 0 0
38 1.05516 -0.51146 16.26945 0 0 0
39 0.31427 -0.04908 16.75186 0 0 0
40 -0.49746 -0.58975 17.01491 0 0 0
41 -0.80010 -1.50564 17.35965 0 0 0
42 -1.48283 -1.15276 17.85437 0 0 0
43 -1.50898 -1.14889 18.87319 0 0 0
44 -1.24154 -0.21763 18.64193 0 0 0
45 -2.21330 -0.01456 18.59834 0 0 0
46 -2.13969 0.32759 19.52468 0 0 0
47 -2.56584 1.06438 19.98776 0 0 0
48 -3.39930 1.56382 20.14475 0 0 0
49 -4.17089 1.92244 19.76601 0 0 0
50 -4.70564 2.74038 19.78657 0 0 0
51 -4.97050 3.61582 20.04773 0 0 0
52 -5.13235 4.58963 19.92877 0 0 0
53 -5.02488 5.45707 20.59586 0 0 0
54 -5.91616 5.11975 20.66617 0 0 0
55 -6.48337 4.40565 21.06415 0 0 0
56 2.28038 -0.05336 16.34911 0 0 0
57 2.73722 -0.40626 17.17717 0 0 0
58 3.45059 -0.52124 17.82955 0 0 0
59 4.07052 0.19533 17.89174 0 0 0
60 4.98129 0.03625 18.08278 0 0 0
61 5.80438 -0.13965 18.51890 0 0 0
62 6.60930 0.42737 18.53230 0 0 0
63 7.41256 0.69613 18.99332 0 0 0
64 8.19650 0.19973 19.43667 0 0 0
65 8.90022 0.20039 20.13603 0 0 0
66 9.51788 0.05446 20.88207 0 0 0
67 10.37106 -0.09142 20.55522 0 0 0
68 11.46649 0.09389 20.35118 0 0 0
69 12.40192 0.43787 20.46082 0 0 0
70 13.35654 0.47281 20.16617 0 0 0
71 14.28916 0.64375 19.90799 0 0 0
72 15.30769 0.54059 20.23542 0 0 0
73 16.46135 0.63728 20.14722 0 0 0
74 17.19039 0.32333 20.75356 0 0 0
75 16.72403 -0.54511 20.89689 0 0 0
76 16.93201 -1.38252 21.37875 0 0 0
77 17.68221 -1.78580 20.91372 0 0 0
78 17.99261 -2.27907 21.65099 0 0 0
79 18.77841 -2.34561 22.23721 0 0 0
80 19.42494 -2.69115 22.89416 0 0 0
81 19.62156 -2.80628 23.87291 0 0 0
82 19.61727 -3.64093 24.38104 0 0 0
83 20.15768 -4.35818 24.75016 0 0 0
84 20.31752 -4.55163 25.73877 0 0 0
85 20.34413 -5.41535 26.11743 0 0 0
86 20.38209 -6.33234 25.63140 0 0 0
87 20.86558 -7.06087 25.32900 0 0 0
88 20.92658 -7.20921 26.27788 0 0 0
89 21.23468 -7.05463 27.17545 0 0 0
90 20.27191 -6.76939 27.69398 0 0 0
91 19.63499 -6.09530 27.60538 0 0 0
92 18.98911 -6.74625 27.25367 0 0 0
93 17.09653 0.38918 21.81233 0 0 0
94 16.61431 0.47872 22.62949 0 0 0
95 15.99794 0.87601 23.30894 0 0 0
96 15.00321 0.84926 23.59991 0 0 0
97 14.61567 1.28816 24.34443 0 0 0
98 14.35077 2.16783 23.96024 0 0 0
99 14.84978 2.76877 23.30186 0 0 0
100 15.13074 3.68077 22.97322 0 0 0
101 15.53319 4.17882 23.68373 0 0 0
102 15.37393 4.94239 24.18437 0 0 0
103 15.31507 5.83565 24.58648 0 0 0
104 15.85252 6.10129 23.82809 0 0 0
105 16.55670 6.65804 23.73784 0 0 0
106 16.14970 7.50864 24.06378 0 0 0
107 16.65085 8.25639 24.69156 0 0 0
108 16.51975 9.06857 25.19806 0 0 0
109 16.14791 9.81041 24.72700 0 0 0
110 16.57644 10.69665 24.63492 0 0 0
111 17.83021 0.10846 20.00948 0 0 0
112 18.62068 -0.06701 19.46190 0 0 0
113 18.98181 0.22531 18.61777 0 0 0
114 19.27489 0.74455 17.96577 0 0 0
115 20.23267 0.75698 17.86033 0 0 0
116 20.99810 0.39178 17.25494 0 0 0
117 21.80108 0.98015 17.29660 0 0 0
118 22.57090 1.32522 16.81265 0 0 0
119 23.15844 1.67882 16.14106 0 0 0
120 23.84105 2.12870 16.58610 0 0 0
121 24.32132 2.85835 16.22875 0 0 0
122 25.00564 3.54286 15.91771 0 0 0
123 26.01582 4.16919 15.96055 0 0 0
124 26.76946 4.31352 15.34928 0 0 0
125 27.20965 3.96973 14.49115 0 0 0
126 27.52848 3.88502 13.53705 0 0 0
127 28.18208 4.29071 12.95528 0 0 0
128 28.57172 3.87762 12.17542 0 0 0
129 29.25208 4.15121 11.57838 0 0 0
130 29.70858 5.00634 11.02491 0 0 0
131 29.26522 5.25695 10.21491 0 0 0
132 28.66935 5.24742 9.44635 0 0 0
133 28.56543 5.20394 8.51675 0 0 0
134 28.17385 5.61637 7.60996 0 0 0
135 27.82274 6.55487 7.36657 0 0 0
136 27.68086 7.53179 7.07463 0 0 0
137 27.50567 8.45011 7.10570 0 0 0
138 28.43180 8.38759 6.63659 0 0 0
139 28.37674 9.20711 6.11720 0 0 0
140 28.20822 9.70133 5.33750 0 0 0
141 27.70355 10.47086 5.42012 0 0 0
142 27.12226 10.88694 4.74773 0 0 0
143 26.25375 11.19076 4.57163 0 0 0
148 29.39056 3.17716 11.70202 0 0 0
149 30.17871 2.64057 11.89156 0 0 0
150 30.89560 2.22623 12.44359 0 0 0
151 30.44189 1.73775 13.20989 0 0 0
152 30.43738 0.86090 12.91754 0 0 0
153 29.64695 0.26832 13.12634 0 0 0
154 29.07126 0.07968 12.30063 0 0 0
155 28.38540 -0.66234 12.37037 0 0 0
156 29.10516 -1.19737 12.00105 0 0 0
157 30.10865 -1.22229 11.84890 0 0 0
158 30.89070 -1.29680 11.27935 0 0 0
159 30.91614 -1.76360 10.39085 0 0 0
160 30.81427 -2.71315 10.07453 0 0 0
161 29.95069 -3.09321 10.41865 0 0 0
162 29.32181 -3.78378 10.76819 0 0 0
163 29.20018 -4.31288 11.57389 0 0 0
164 29.26463 -5.19169 11.24856 0 0 0
165 29.57244 -5.67069 10.50638 0 0 0
166 30.25133 4.30505 11.71700 0 0 0
167 30.99413 4.96425 11.71202 0 0 0
168 31.92488 5.18649 11.52173 0 0 0
169 32.69257 5.78211 11.23881 0 0 0
170 33.63829 5.97407 11.34511 0 0 0
171 34.48547 5.68661 11.71705 0 0 0
172 35.33507 5.63380 12.13784 0 0 0
173 36.12291 6.20299 12.05659 0 0 0
174 36.98513 6.52239 12.22890 0 0 0
175 37.60458 7.29666 12.51777 0 0 0
176 38.31911 7.76327 13.13046 0 0 0
177 39.00343 8.11653 13.70857 0 0 0
178 39.89019 8.09921 13.93357 0 0 0
179 40.49542 7.66901 14.69253 0 0 0
180 41.29935 7.30865 14.31550 0 0 0
181 42.31668 7.43054 14.19674 0 0 0
182 43.26501 7.63008 14.21124 0 0 0
183 44.26009 7.63715 14.41320 0 0 0
184 44.93087 7.09818 14.88877 0 0 0
185 45.56089 7.28732 14.13807 0 0 0
186 46.36796 7.99614 14.12623 0 0 0
187 47.26415 8.24059 13.86426 0 0 0
188 46.86188 8.92904 13.24790 0 0 0
189 47.19401 9.81830 12.89777 0 0 0
190 47.36362 10.70305 12.87157 0 0 0
191 47.46756 11.67445 12.88270 0 0 0
192 46.81555 11.67792 12.18331 0 0 0
193 47.23305 12.14487 11.46956 0 0 0
194 47.45915 12.40449 10.56112 0 0 0
195 47.20340 12.30692 9.64519 0 0 0
196 46.65429 13.10606 9.54996 0 0 0
197 46.29222 14.07290 9.62816 0 0 0
198 45.33839 14.52796 9.80125 0 0 0
199 44.69438 14.78705 9.02927 0 0 0
200 43.95959 15.03446 8.33710 0 0 0
201 43.62725 15.94184 8.12535 0 0 0
202 42.92461 16.65300 7.86015 0 0 0
203 44.89036 6.13396 15.07054 0 0 0
204 44.85596 5.32192 15.72523 0 0 0
205 45.37704 4.53204 15.39398 0 0 0
206 46.09692 4.05633 14.90697 0 0 0
207 46.69831 3.47405 14.30614 0 0 0
208 47.50198 2.63650 14.46465 0 0 0
209 48.31822 2.68613 13.99799 0 0 0
210 49.33967 2.86901 13.79465 0 0 0
211 50.02169 2.62676 13.18900 0 0 0
212 50.88122 2.49212 13.52556 0 0 0
213 51.61290 2.00461 12.95306 0 0 0
214 52.45145 1.50711 12.83832 0 0 0
215 53.16453 1.61314 13.50555 0 0 0
216 53.15818 0.75479 14.08257 0 0 0
217 53.24714 -0.14681 13.77989 0 0 0
218 52.57653 -0.76886 14.21807 0 0 0
219 52.76561 -1.00442 13.32088 0 0 0
220 52.57970 -1.75335 14.02592 0 0 0
221 44.91739 6.88088 15.88859 0 0 0
222 44.92535 7.42472 16.67827 0 0 0
223 45.49310 7.71563 17.34596 0 0 0
224 45.68827 7.50429 18.28341 0 0 0
225 45.78734 8.45842 18.39105 0 0 0
226 46.48496 8.57427 19.09737 0 0 0
227 47.35183 8.87931 19.32895 0 0 0
228 47.65117 9.34018 20.21057 0 0 0
229 48.21945 9.30705 20.97733 0 0 0
230 48.96573 9.19414 21.49631 0 0 0
231 49.46743 9.02701 22.37942 0 0 0
232 48.88989 9.00658 23.22618 0 0 0
233 49.06104 9.34633 24.07884 0 0 0
234 49.38585 9.99912 24.71363 0 0 0
235 49.76759 9.92771 25.61739 0 0 0