ITEM: TIMESTEP
0
ITEM: NUMBER OF ATOMS
301
ITEM: BOX BOUNDS pp pp pp
-1.0000000000000000e+03 1.0000000000000000e+03
-1.0000000000000000e+03 1.0000000000000000e+03
-1.0000000000000000e+03 1.0000000000000000e+03
ITEM: ATOMS id x y z ix iy iz
1 0.00000 0.00000 0.00000 0 0 0
2 0.00000 0.00000 1.00000 0 0 0
3 0.00000 -0.50000 1.86603 0 0 0
4 0.00000 0.00000 2.73205 0 0 0
5 0.00000 -0.50000 3.59808 0 0 0
6 0.00000 0.00000 4.46410 0 0 0
7 0.00000 -0.50000 5.33013 0 0 0
8 0.00000 0.00000 6.19615 0 0 0
9 0.00000 -0.50000 7.06218 0 0 0
10 0.00000 0.00000 7.92820 0 0 0
11 0.00000 -0.50000 8.79423 0 0 0
12 0.00000 0.00000 9.66025 0 0 0
13 0.00000 -0.50000 10.52628 0 0 0
14 0.00000 0.00000 11.39230 0 0 0
15 0.00000 -0.50000 12.25833 0 0 0
16 0.00000 0.00000 13.12436 0 0 0
17 0.00000 -0.50000 13.99038 0 0 0
18 0.00000 0.00000 14.85641 0 0 0
19 0.00000 -0.50000 15.72243 0 0 0
20 0.00000 0.00000 16.58846 0 0 0
21 0.00000 -0.50000 17.45448 0 0 0
22 0.00000 0.00000 18.32051 0 0 0
23 0.00000 -0.50000 19.18653 0 0 0
24 0.00000 0.00000 20.05256 0 0 0
25 0.00000 -0.50000 20.91858 0 0 0
26 0.00000 0.00000 21.78461 0 0 0
27 0.00000 -0.50000 22.65064 0 0 0
28 0.00000 0.00000 23.51666 0 0 0
29 0.00000 -0.50000 24.38269 0 0 0
30 0.00000 0.00000 25.24871 0 0 0
31 0.00000 -0.50000 26.11474 0 0 0
32 0.00000 0.00000 26.98076 0 0 0
33 0.00000 -0.50000 27.84679 0 0 0
34 0.00000 0.00000 28.71281 0 0 0
35 0.00000 -0.50000 29.57884 0 0 0
36 0.00000 0.00000 30.44486 0 0 0
37 0.00000 -0.50000 31.31089 0 0 0
38 0.00000 0.00000 32.17691 0 0 0
39 0.00000 -0.50000 33.04294 0 0 0
40 0.00000 0.00000 33.90897 0 0 0
41 0.00000 -0.50000 34.77499 0 0 0
42 0.00000 0.00000 35.64102 0 0 0
43 0.00000 -0.50000 36.50704 0 0 0
44 0.00000 0.00000 37.37307 0 0 0
45 0.00000 -0.50000 38.23909 0 0 0
46 0.00000 0.00000 39.10512 0 0 0
47 0.00000 -0.50000 39.97114 0 0 0
48 0.00000 0.00000 40.83717 0 0 0
49 0.00000 -0.50000 41.70319 0 0 0
50 0.00000 0.00000 42.56922 0 0 0
51 0.00000 -0.50000 43.43524 0 0 0
52 0.00000 0.00000 44.30127 0 0 0
53 0.00000 -0.50000 45.16730 0 0 0
54 0.00000 0.00000 46.03332 0 0 0
55 0.00000 -0.50000 46.89935 0 0 0
56 0.00000 0.00000 47.76537 0 0 0
57 0.00000 -0.50000 48.63140 0 0 0
58 0.00000 0.00000 49.49742 0 0 0
59 0.00000 -0.50000 50.36345 0 0 0
60 0.00000 0.00000 51.22947 0 0 0
61 0.00000 -0.50000 52.09550 0 0 0
62 0.00000 0.00000 52.96152 0 0 0
63 0.00000 -0.50000 53.82755 0 0 0
64 0.00000 0.00000 54.69358 0 0 0
65 0.00000 -0.50000 55.55960 0 0 0
66 0.00000 0.00000 56.42563 0 0 0
67 0.00000 -0.50000 57.29165 0 0 0
68 0.00000 0.00000 58.15768 0 0 0
69 0.00000 -0.50000 59.02370 0 0 0
70 0.00000 0.00000 59.88973 0 0 0
71 0.00000 -0.50000 60.75575 0 0 0
72 0.00000 0.00000 61.62178 0 0 0
73 0.00000 -0.50000 62.48780 0 0 0
74 0.00000 0.00000 63.35383 0 0 0
75 0.00000 -0.50000 64.21985 0 0 0
76 0.00000 0.00000 65.08588 0 0 0
77 0.00000 -0.50000 65.95191 0 0 0
78 0.00000 0.00000 66.81793 0 0 0
79 0.00000 -0.50000 67.68396 0 0 0
80 0.00000 0.00000 68.54998 0 0 0
81 0.00000 -0.50000 69.41601 0 0 0
82 0.00000 0.00000 70.28203 0 0 0
83 0.00000 -0.50000 71.14806 0 0 0
84 0.00000 0.00000 72.01408 0 0 0
85 0.00000 -0.50000 72.88011 0 0 0
86 0.00000 0.00000 73.74613 0 0 0
87 0.00000 -0.50000 74.61216 0 0 0
88 0.00000 0.00000 75.47818 0 0 0
89 0.00000 -0.50000 76.34421 0 0 0
90 0.00000 0.00000 77.21024 0 0 0
91 0.00000 -0.50000 78.07626 0 0 0
92 0.00000 0.00000 78.94229 0 0 0
93 0.00000 -0.50000 79.80831 0 0 0
94 0.00000 0.00000 80.67434 0 0 0
95 0.00000 -0.50000 81.54036 0 0 0
96 0.00000 0.00000 82.40639 0 0 0
97 0.00000 -0.50000 83.27241 0 0 0
98 0.00000 0.00000 84.13844 0 0 0
99 0.00000 -0.50000 85.00446 0 0 0
100 0.00000 0.00000 85.87049 0 0 0
101 0.00000 -0.50000 86.73651 0 0 0
102 -0.49722 -0.13593 87.52406 0 0 0
103 -0.99443 -0.21441 88.38813 0 0 0
104 -1.49165 0.49466 88.88813 0 0 0
105 -1.98887 0.41618 89.75220 0 0 0
106 -2.48608 1.12524 90.25220 0 0 0
107 -2.98330 1.04676 91.11627 0 0 0
108 -3.48052 1.75583 91.61627 0 0 0
109 -3.97773 1.67735 92.48034 0 0 0
110 -4.47495 2.38642 92.98034 0 0 0
111 -4.97217 2.30794 93.84441 0 0 0
112 -5.46938 3.01701 94.34441 0 0 0
113 -5.96660 2.93853 95.20848 0 0 0
114 -6.46382 3.64759 95.70848 0 0 0
115 -6.96103 3.56911 96.57255 0 0 0
116 -7.45825 4.27818 97.07255 0 0 0
117 -7.95547 4.19970 97.93662 0 0 0
118 -8.45268 4.90877 98.43662 0 0 0
119 -8.94990 4.83029 99.30069 0 0 0
120 -9.44712 5.53936 99.80069 0 0 0
121 -9.94434 5.46088 100.66476 0 0 0
122 -10.44155 6.16994 101.16476 0 0 0
123 -10.93877 6.09146 102.02883 0 0 0
124 -11.43599 6.80053 102.52883 0 0 0
125 -11.93320 6.72205 103.39290 0 0 0
126 -12.43042 7.43112 103.89290 0 0 0
127 -12.92764 7.35264 104.75697 0 0 0
128 -13.42485 8.06170 105.25697 0 0 0
129 -13.92207 7.98322 106.12104 0 0 0
130 -14.41929 8.69229 106.62104 0 0 0
131 -14.91650 8.61381 107.48511 0 0 0
132 -15.41372 9.32288 107.98511 0 0 0
133 -15.91094 9.24440 108.84918 0 0 0
134 -16.40815 9.95347 109.34918 0 0 0
135 -16.90537 9.87499 110.21325 0 0 0
136 -17.40259 10.58405 110.71325 0 0 0
137 -17.89980 10.50557 111.57732 0 0 0
138 -18.39702 11.21464 112.07732 0 0 0
139 -18.89424 11.13616 112.94139 0 0 0
140 -19.39145 11.84523 113.44139 0 0 0
141 -19.88867 11.76675 114.30546 0 0 0
142 -20.38589 12.47581 114.80546 0 0 0
143 -20.88310 12.39734 115.66953 0 0 0
144 -21.38032 13.10640 116.16953 0 0 0
145 -21.87754 13.02792 117.03359 0 0 0
146 -22.37475 13.73699 117.53359 0 0 0
147 -22.87197 13.65851 118.39766 0 0 0
148 -23.36919 14.36758 118.89766 0 0 0
149 -23.86640 14.28910 119.76173 0 0 0
150 -24.36362 14.99816 120.26173 0 0 0
151 -24.86084 14.91968 121.12580 0 0 0
152 -25.35805 15.62875 121.62580 0 0 0
153 -25.85527 15.55027 122.48987 0 0 0
154 -26.35249 16.25934 122.98987 0 0 0
155 -26.84970 16.18086 123.85394 0 0 0
156 -27.34692 16.88993 124.35394 0 0 0
157 -27.84414 16.81145 125.21801 0 0 0
158 -28.34135 17.52051 125.71801 0 0 0
159 -28.83857 17.44203 126.58208 0 0 0
160 -29.33579 18.15110 127.08208 0 0 0
161 -29.83301 18.07262 127.94615 0 0 0
162 -30.33022 18.78169 128.44615 0 0 0
163 -30.82744 18.70321 129.31022 0 0 0
164 -31.32466 19.41227 129.81022 0 0 0
165 -31.82187 19.33380 130.67429 0 0 0
166 -32.31909 20.04286 131.17429 0 0 0
167 -32.81631 19.96438 132.03836 0 0 0
168 -33.31352 20.67345 132.53836 0 0 0
169 -33.81074 20.59497 133.40243 0 0 0
170 -34.30796 21.30404 133.90243 0 0 0
171 -34.80517 21.22556 134.76650 0 0 0
172 -35.30239 21.93462 135.26650 0 0 0
173 -35.79961 21.85614 136.13057 0 0 0
174 -36.29682 22.56521 136.63057 0 0 0
175 -36.79404 22.48673 137.49464 0 0 0
176 -37.29126 23.19580 137.99464 0 0 0
177 -37.78847 23.11732 138.85871 0 0 0
178 -38.28569 23.82639 139.35871 0 0 0
179 -38.78291 23.74791 140.22278 0 0 0
180 -39.28012 24.45697 140.72278 0 0 0
181 -39.77734 24.37849 141.58685 0 0 0
182 -40.27456 25.08756 142.08685 0 0 0
183 -40.77177 25.00908 142.95092 0 0 0
184 -41.26899 25.71815 143.45092 0 0 0
185 -41.76621 25.63967 144.31499 0 0 0
186 -42.26342 26.34873 144.81499 0 0 0
187 -42.76064 26.27026 145.67906 0 0 0
188 -43.25786 26.97932 146.17906 0 0 0
189 -43.75507 26.90084 147.04313 0 0 0
190 -44.25229 27.60991 147.54313 0 0 0
191 -44.74951 27.53143 148.40720 0 0 0
192 -45.24672 28.24050 148.90720 0 0 0
193 -45.74394 28.16202 149.77127 0 0 0
194 -46.24116 28.87108 150.27127 0 0 0
195 -46.73837 28.79260 151.13534 0 0 0
196 -47.23559 29.50167 151.63534 0 0 0
197 -47.73281 29.42319 152.49941 0 0 0
198 -48.23002 30.13226 152.99941 0 0 0
199 -48.72724 30.05378 153.86348 0 0 0
200 -49.22446 30.76285 154.36348 0 0 0
201 -49.72168 30.68437 155.22755 0 0 0
202 0.49722 -1.36407 86.81499 0 0 0
203 0.99443 -2.15162 86.45092 0 0 0
204 1.49165 -2.86068 86.95092 0 0 0
205 1.98887 -3.64823 86.58685 0 0 0
206 2.48608 -4.35730 87.08685 0 0 0
207 2.98330 -5.14484 86.72279 0 0 0
208 3.48052 -5.85391 87.22279 0 0 0
209 3.97773 -6.64145 86.85872 0 0 0
210 4.47495 -7.35052 87.35872 0 0 0
211 4.97217 -8.13807 86.99465 0 0 0
212 5.46938 -8.84713 87.49465 0 0 0
213 5.96660 -9.63468 87.13058 0 0 0
214 6.46382 -10.34375 87.63058 0 0 0
215 6.96103 -11.13129 87.26651 0 0 0
216 7.45825 -11.84036 87.76651 0 0 0
217 7.95547 -12.62790 87.40244 0 0 0
218 8.45268 -13.33697 87.90244 0 0 0
219 8.94990 -14.12452 87.53837 0 0 0
220 9.44712 -14.83358 88.03837 0 0 0
221 9.94434 -15.62113 87.67430 0 0 0
222 10.44155 -16.33020 88.17430 0 0 0
223 10.93877 -17.11774 87.81023 0 0 0
224 11.43599 -17.82681 88.31023 0 0 0
225 11.93320 -18.61436 87.94616 0 0 0
226 12.43042 -19.32342 88.44616 0 0 0
227 12.92764 -20.11097 88.08209 0 0 0
228 13.42485 -20.82003 88.58209 0 0 0
229 13.92207 -21.60758 88.21802 0 0 0
230 14.41929 -22.31665 88.71802 0 0 0
231 14.91650 -23.10419 88.35395 0 0 0
232 15.41372 -23.81326 88.85395 0 0 0
233 15.91094 -24.60081 88.48988 0 0 0
234 16.40815 -25.30987 88.98988 0 0 0
235 16.90537 -26.09742 88.62581 0 0 0
236 17.40259 -26.80649 89.12581 0 0 0
237 17.89980 -27.59403 88.76174 0 0 0
238 18.39702 -28.30310 89.26174 0 0 0
239 18.89424 -29.09064 88.89767 0 0 0
240 19.39145 -29.79971 89.39767 0 0 0
241 19.88867 -30.58726 89.03360 0 0 0
242 20.38589 -31.29632 89.53360 0 0 0
243 20.88310 -32.08387 89.16953 0 0 0
244 21.38032 -32.79294 89.66953 0 0 0
245 21.87754 -33.58048 89.30546 0 0 0
246 22.37475 -34.28955 89.80546 0 0 0
247 22.87197 -35.07709 89.44139 0 0 0
248 23.36919 -35.78616 89.94139 0 0 0
249 23.86640 -36.57371 89.57732 0 0 0
250 24.36362 -37.28277 90.07732 0 0 0
251 24.86084 -38.07032 89.71325 0 0 0
252 25.35805 -38.77939 90.21325 0 0 0
253 25.85527 -39.56693 89.84918 0 0 0
254 26.35249 -40.27600 90.34918 0 0 0
255 26.84970 -41.06355 89.98511 0 0 0
256 27.34692 -41.77261 90.48511 0 0 0
257 27.84414 -42.56016 90.12104 0 0 0
258 28.34135 -43.26922 90.62104 0 0 0
259 28.83857 -44.05677 90.25697 0 0 0
260 29.33579 -44.76584 90.75697 0 0 0
261 29.83301 -45.55338 90.39290 0 0 0
262 30.33022 -46.26245 90.89290 0 0 0
263 30.82744 -47.05000 90.52883 0 0 0
264 31.32466 -47.75906 91.02883 0 0 0
265 31.82187 -48.54661 90.66476 0 0 0
266 32.31909 -49.25567 91.16476 0 0 0
267 32.81631 -50.04322 90.80069 0 0 0
268 33.31352 -50.75229 91.30069 0 0 0
269 33.81074 -51.53983 90.93662 0 0 0
270 34.30796 -52.24890 91.43662 0 0 0
271 34.80517 -53.03645 91.07255 0 0 0
272 35.30239 -53.74551 91.57255 0 0 0
273 35.79961 -54.53306 91.20848 0 0 0
274 36.29682 -55.24213 91.70848 0 0 0
275 36.79404 -56.02967 91.34441 0 0 0
276 37.29126 -56.73874 91.84441 0 0 0
277 37.78847 -57.52628 91.48034 0 0 0
278 38.28569 -58.23535 91.98034 0 0 0
279 38.78291 -59.02290 91.61628 0 0 0
280 39.28012 -59.73196 92.11628 0 0 0
281 39.77734 -60.51951 91.75221 0 0 0
282 40.27456 -61.22858 92.25221 0 0 0
283 40.77177 -62.01612 91.88814 0 0 0
284 41.26899 -62.72519 92.38814 0 0 0
285 41.76621 -63.51273 92.02407 0 0 0
286 42.26342 -64.22180 92.52407 0 0 0
287 42.76064 -65.00935 92.16000 0 0 0
288 43.25786 -65.71841 92.66000 0 0 0
289 43.75507 -66.50596 92.29593 0 0 0
290 44.25229 -67.21503 92.79593 0 0 0
291 44.74951 -68.00257 92.43186 0 0 0
292 45.24672 -68.71164 92.93186 0 0 0
293 45.74394 -69.49919 92.56779 0 0 0
294 46.24116 -70.20825 93.06779 0 0 0
295 46.73837 -70.99580 92.70372 0 0 0
296 47.23559 -71.70486 93.20372 0 0 0
297 47.73281 -72.49241 92.83965 0 0 0
298 48.23002 -73.20148 93.33965 0 0 0
299 48.72724 -73.98902 92.97558 0 0 0
300 49.22446 -74.69809 93.47558 0 0 0
301 49.72168 -75.48564 93.11151 0 0 0
ITEM: TIMESTEP
1000
ITEM: NUMBER OF ATOMS
301
ITEM: BOX BOUNDS pp pp pp
-1.0000000000000000e+03 1.0000000000000000e+03
-1.0000000000000000e+03 1.0000000000000000e+03
-1.0000000000000000e+03 1.0000000000000000e+03
ITEM: ATOMS id x y z ix iy iz
1 -0.55139 2.23944 4.84515 0 0 0
2 -0.31559 1.25250 4.98012 0 0 0
3 -1.19077 0.99148 5.35242 0 0 0
4 -1.45241 0.42214 6.03464 0 0 0
5 -1.71735 -0.07622 6.87400 0 0 0
6 -2.03261 -0.38490 7.72771 0 0 0
7 -2.32805 -0.29554 8.64560 0 0 0
8 -1.54073 -0.41724 9.10644 0 0 0
9 -1.22615 -1.34620 9.49625 0 0 0
10 -1.08493 -1.62213 10.43332 0 0 0
11 -0.86503 -2.04298 11.21373 0 0 0
12 -1.48347 -1.67779 12.02585 0 0 0
13 -1.17315 -1.10776 12.75216 0 0 0
14 -0.64383 -0.98668 13.55882 0 0 0
15 -1.15292 -0.69548 14.35204 0 0 0
16 -1.52587 -0.55026 15.19382 0 0 0
17 -2.36926 -0.09330 15.36120 0 0 0
18 -2.26532 -0.00830 16.40882 0 0 0
19 -1.67988 0.47291 17.02970 0 0 0
20 -1.73938 0.30744 18.02411 0 0 0
21 -1.87437 0.90235 18.80087 0 0 0
22 -0.94367 0.90207 19.27306 0 0 0
23 -0.13980 0.58922 19.75430 0 0 0
24 0.34588 -0.08246 20.17663 0 0 0
25 0.25258 -0.26040 21.14384 0 0 0
26 0.08797 0.04905 22.06370 0 0 0
27 -0.39988 -0.57167 22.69297 0 0 0
28 -0.16573 -0.05687 23.50577 0 0 0
29 -0.12270 0.12677 24.43707 0 0 0
30 -0.18682 -0.13281 25.36333 0 0 0
31 -0.66986 0.03251 26.21897 0 0 0
32 -0.84328 0.00084 27.17847 0 0 0
33 -0.60972 -0.78032 27.75889 0 0 0
34 -0.35763 -0.62402 28.73689 0 0 0
35 -0.33815 -0.66890 29.73636 0 0 0
36 -0.75026 -0.88734 30.55412 0 0 0
37 -0.35262 -0.71413 31.42317 0 0 0
38 -0.69156 -0.21691 32.20961 0 0 0
39 -0.12714 -0.51960 32.96257 0 0 0
40 0.10965 -1.00564 33.78161 0 0 0
41 0.89902 -1.15640 34.24132 0 0 0
42 1.43139 -0.47418 34.78675 0 0 0
43 1.35427 0.11917 35.50395 0 0 0
44 1.33031 0.87241 36.22272 0 0 0
45 1.86714 1.35089 36.87386 0 0 0
46 1.47662 1.75460 37.77443 0 0 0
47 1.38397 1.44213 38.70304 0 0 0
48 1.52426 1.28051 39.72266 0 0 0
49 1.60427 0.54066 40.40468 0 0 0
50 1.20840 0.01854 41.12510 0 0 0
51 0.83593 0.33511 42.06938 0 0 0
52 0.65929 0.45534 43.14366 0 0 0
53 1.04558 0.66994 44.01688 0 0 0
54 0.94454 0.90066 44.96274 0 0 0
55 0.80578 1.19112 45.94148 0 0 0
56 0.36721 1.20769 46.78800 0 0 0
57 0.36249 1.14930 47.82192 0 0 0
58 0.90320 0.63224 48.59579 0 0 0
59 1.05394 1.11637 49.60694 0 0 0
60 1.00654 0.62140 50.47436 0 0 0
61 1.13437 0.13189 51.41718 0 0 0
62 1.48823 -0.22850 52.35362 0 0 0
63 1.10500 -0.53246 53.14162 0 0 0
64 0.68670 -0.43444 54.12708 0 0 0
65 0.56017 -0.51656 55.14257 0 0 0
66 0.41598 -0.28527 56.13586 0 0 0
67 0.29886 -0.79082 56.94794 0 0 0
68 0.82530 -0.39115 57.70634 0 0 0
69 1.31653 -0.40777 58.64320 0 0 0
70 1.47954 -0.64147 59.55049 0 0 0
71 1.90296 -0.15216 60.31197 0 0 0
72 2.23661 0.32002 61.18645 0 0 0
73 1.59589 0.34738 61.92064 0 0 0
74 2.00917 0.27063 62.83367 0 0 0
75 2.01754 0.63337 63.79511 0 0 0
76 1.62341 0.45449 64.81485 0 0 0
77 1.28185 0.47680 65.76827 0 0 0
78 1.40012 0.01258 66.60468 0 0 0
79 1.73407 0.00672 67.55407 0 0 0
80 1.57762 0.00388 68.53596 0 0 0
81 1.10368 -0.27697 69.26969 0 0 0
82 1.14548 -0.98310 70.06220 0 0 0
83 1.42277 -1.09842 71.13137 0 0 0
84 0.96214 -1.05695 71.97456 0 0 0
85 0.80500 -0.78869 72.95183 0 0 0
86 0.73703 -0.14097 73.63325 0 0 0
87 0.45197 -0.24679 74.56505 0 0 0
88 0.22957 -0.89494 75.29872 0 0 0
89 0.17564 -0.97152 76.25798 0 0 0
90 -0.09921 -1.16075 77.10798 0 0 0
91 -0.28300 -1.24874 78.05540 0 0 0
92 -0.67764 -0.92652 78.99544 0 0 0
93 -1.00416 -1.00165 79.95828 0 0 0
94 -1.21840 -1.59310 80.70440 0 0 0
95 -0.83345 -1.62399 81.63988 0 0 0
96 -0.01779 -1.64738 82.29700 0 0 0
97 0.08715 -1.30619 83.21437 0 0 0
98 -0.11782 -1.49880 84.15283 0 0 0
99 -0.21355 -1.74658 85.11802 0 0 0
100 -0.98392 -2.04754 85.80401 0 0 0
101 -1.52266 -1.88810 86.65846 0 0 0
102 -1.85890 -1.32160 87.48227 0 0 0
103 -2.15404 -0.62960 88.18450 0 0 0
104 -2.44628 -0.46698 89.09628 0 0 0
105 -2.62261 0.27129 89.77067 0 0 0
106 -2.79706 0.89248 90.49260 0 0 0
107 -2.96165 1.56049 91.20590 0 0 0
108 -3.47720 1.64557 92.04580 0 0 0
109 -3.79427 2.44052 92.45757 0 0 0
110 -3.60223 3.13284 93.12700 0 0 0
111 -4.26823 3.62819 93.65898 0 0 0
112 -5.01690 3.28557 94.30902 0 0 0
113 -5.04926 3.63293 95.27130 0 0 0
114 -5.78772 3.74896 95.90939 0 0 0
115 -5.46244 4.29403 96.71389 0 0 0
116 -6.02361 4.14756 97.53521 0 0 0
117 -6.45296 4.69057 98.28195 0 0 0
118 -7.23936 5.03005 98.76919 0 0 0
119 -7.96513 5.43852 99.26028 0 0 0
120 -8.85199 5.38855 99.74369 0 0 0
121 -9.22642 5.65587 100.57969 0 0 0
122 -9.77446 5.75730 101.42933 0 0 0
123 -10.21685 5.84737 102.37807 0 0 0
124 -10.53635 5.91250 103.37114 0 0 0
125 -10.24499 5.68339 104.31232 0 0 0
126 -10.96478 5.96694 104.90888 0 0 0
127 -11.92244 6.12194 105.32148 0 0 0
128 -12.32555 6.69320 106.03243 0 0 0
129 -13.17395 6.53690 106.48384 0 0 0
130 -13.64236 7.26314 106.96823 0 0 0
131 -13.99568 7.57730 107.85983 0 0 0
132 -14.00164 8.55678 108.17293 0 0 0
133 -14.46539 8.91723 108.90149 0 0 0
134 -14.92328 9.55470 109.53662 0 0 0
135 -15.42504 9.72860 110.39909 0 0 0
136 -16.19204 10.01133 110.93904 0 0 0
137 -16.95938 10.45319 111.40602 0 0 0
138 -17.27930 10.83073 112.21874 0 0 0
139 -17.84518 11.25416 113.00984 0 0 0
140 -18.62156 11.80711 112.98504 0 0 0
141 -19.08808 12.52731 113.69056 0 0 0
142 -19.65520 12.58794 114.54299 0 0 0
143 -20.49010 12.28941 114.99031 0 0 0
144 -20.37578 12.22776 115.96820 0 0 0
145 -20.66019 13.02763 116.58024 0 0 0
146 -21.23107 13.15685 117.36465 0 0 0
147 -21.55087 13.66817 118.13980 0 0 0
148 -22.07932 13.92712 118.88577 0 0 0
149 -22.45141 14.64521 119.48322 0 0 0
150 -22.98021 15.14446 120.16112 0 0 0
151 -23.60894 14.83859 120.85477 0 0 0
152 -24.31233 15.05467 121.53213 0 0 0
153 -24.43037 15.05712 122.50247 0 0 0
154 -25.37577 15.00295 122.81393 0 0 0
155 -25.51312 15.51174 123.61291 0 0 0
156 -25.76664 16.24075 124.27055 0 0 0
157 -26.53551 16.30337 124.91470 0 0 0
158 -27.28517 16.66464 125.50721 0 0 0
159 -28.25934 16.71280 125.69664 0 0 0
160 -28.98764 17.13581 126.31202 0 0 0
161 -29.75942 17.74592 126.54855 0 0 0
162 -30.32833 18.31721 127.06178 0 0 0
163 -30.84679 18.89768 127.66505 0 0 0
164 -31.28803 19.25511 128.50877 0 0 0
165 -31.84248 19.52342 129.29779 0 0 0
166 -32.03590 19.44102 130.27984 0 0 0
167 -32.23824 19.85873 131.14127 0 0 0
168 -32.15801 20.21496 132.02057 0 0 0
169 -33.09720 20.41619 132.33809 0 0 0
170 -33.42754 20.24012 133.20676 0 0 0
171 -34.22304 20.21986 133.84531 0 0 0
172 -35.16959 20.35355 134.03014 0 0 0
173 -35.92860 20.40732 134.80882 0 0 0
174 -36.56223 20.17039 135.59894 0 0 0
175 -37.08079 19.90710 136.36971 0 0 0
176 -37.47839 20.13012 137.30548 0 0 0
177 -37.64983 20.92393 137.83529 0 0 0
178 -37.89754 21.51922 138.68066 0 0 0
179 -38.09562 22.15988 139.38205 0 0 0
180 -38.17035 22.37148 140.37175 0 0 0
181 -38.85416 22.72366 141.06105 0 0 0
182 -39.39213 23.43454 141.74632 0 0 0
183 -40.21528 24.02700 141.76445 0 0 0
184 -41.05588 24.21357 142.21380 0 0 0
185 -41.71856 24.88253 142.50801 0 0 0
186 -41.72786 25.17283 143.40730 0 0 0
187 -42.25282 25.47161 144.16854 0 0 0
188 -42.97800 25.76045 144.80876 0 0 0
189 -43.78295 26.03156 145.32314 0 0 0
190 -44.45224 26.43892 145.92152 0 0 0
191 -44.14659 26.35309 146.81450 0 0 0
192 -44.38465 26.83114 147.64949 0 0 0
193 -44.50154 26.87171 148.61525 0 0 0
194 -44.48831 27.48660 149.36828 0 0 0
195 -44.93389 28.16010 149.96337 0 0 0
196 -45.51949 28.47246 150.62855 0 0 0
197 -45.95181 28.86240 151.46364 0 0 0
198 -45.63791 28.73113 152.41991 0 0 0
199 -45.49709 29.39988 153.13560 0 0 0
200 -45.58308 30.17658 153.69780 0 0 0
201 -45.76208 30.27595 154.72088 0 0 0
202 -0.78992 -2.44776 86.88658 0 0 0
203 0.03904 -2.95485 86.66845 0 0 0
204 0.96439 -3.33235 86.21234 0 0 0
205 1.89225 -3.46252 86.20032 0 0 0
206 2.69791 -3.89475 85.89221 0 0 0
207 3.61906 -4.40021 85.69619 0 0 0
208 4.15686 -4.55615 86.51408 0 0 0
209 4.36849 -5.53610 86.61647 0 0 0
210 4.57693 -6.47925 86.81666 0 0 0
211 5.25375 -7.22426 86.78537 0 0 0
212 5.00405 -8.06654 86.31753 0 0 0
213 5.50061 -8.83338 86.11778 0 0 0
214 6.26136 -9.41636 86.16922 0 0 0
215 7.14845 -10.00555 86.65749 0 0 0
216 7.64567 -10.90891 86.66886 0 0 0
217 8.29112 -11.60429 86.84615 0 0 0
218 8.30034 -12.56556 87.01202 0 0 0
219 8.81790 -13.41652 86.84369 0 0 0
220 9.43076 -14.19339 86.95738 0 0 0
221 10.09582 -14.89015 86.84967 0 0 0
222 10.12253 -15.71134 87.44458 0 0 0
223 10.71734 -16.48129 87.70703 0 0 0
224 11.26875 -17.26386 88.03728 0 0 0
225 12.10609 -17.63491 88.44389 0 0 0
226 12.42824 -18.59601 88.47013 0 0 0
227 13.32492 -18.94693 88.17853 0 0 0
228 13.84947 -19.79859 88.17640 0 0 0
229 14.45669 -20.51795 88.30668 0 0 0
230 15.21562 -20.97956 87.90684 0 0 0
231 15.70694 -21.83606 88.19198 0 0 0
232 15.72094 -22.84328 87.88454 0 0 0
233 16.21181 -23.51933 88.28300 0 0 0
234 16.38236 -24.41525 88.60630 0 0 0
235 16.86568 -25.35081 88.70518 0 0 0
236 17.49229 -26.01877 88.93760 0 0 0
237 17.16310 -26.91727 89.04152 0 0 0
238 17.51412 -27.83024 89.08025 0 0 0
239 18.31462 -28.26082 89.52973 0 0 0
240 18.74489 -28.60491 90.35246 0 0 0
241 19.21226 -29.40380 90.24222 0 0 0
242 19.86107 -30.18263 90.28426 0 0 0
243 20.31405 -30.91318 90.62650 0 0 0
244 20.95587 -31.64669 90.56410 0 0 0
245 21.49320 -32.44471 90.85995 0 0 0
246 21.62322 -33.41407 91.04204 0 0 0
247 22.14842 -34.20435 90.59942 0 0 0
248 22.71403 -34.98571 90.79989 0 0 0
249 23.59618 -35.39960 90.65955 0 0 0
250 24.26957 -36.08319 90.89586 0 0 0
251 24.62811 -36.99504 91.16201 0 0 0
252 24.21943 -37.92440 91.26415 0 0 0
253 25.02907 -38.66059 90.90900 0 0 0
254 25.40773 -39.60386 91.10041 0 0 0
255 25.71624 -40.49899 91.20771 0 0 0
256 26.10526 -41.26283 91.74166 0 0 0
257 26.50958 -42.04436 92.12381 0 0 0
258 27.20687 -42.63759 91.79074 0 0 0
259 27.86841 -43.34996 91.70413 0 0 0
260 28.40949 -44.15037 91.37132 0 0 0
261 28.92647 -44.94574 91.18274 0 0 0
262 29.57484 -45.67272 91.15868 0 0 0
263 29.93614 -46.53722 91.15141 0 0 0
264 30.63852 -47.15031 91.58308 0 0 0
265 30.81821 -48.09099 91.56135 0 0 0
266 31.42994 -48.74707 91.24322 0 0 0
267 31.63709 -49.66973 90.94327 0 0 0
268 32.44115 -50.15577 90.50192 0 0 0
269 32.25482 -51.13426 90.08367 0 0 0
270 32.64044 -52.01295 90.18991 0 0 0
271 33.04651 -52.91243 90.10925 0 0 0
272 33.52137 -53.78170 90.05922 0 0 0
273 33.95358 -54.75401 90.10477 0 0 0
274 34.23911 -55.53207 90.68522 0 0 0
275 34.98656 -55.75202 91.33414 0 0 0
276 35.57481 -56.39214 91.78384 0 0 0
277 36.24890 -56.89794 92.28816 0 0 0
278 37.05908 -57.33706 92.71978 0 0 0
279 37.65122 -58.16903 92.72473 0 0 0
280 38.13377 -59.01474 92.64758 0 0 0
281 39.03247 -59.51226 92.38479 0 0 0
282 39.35233 -60.20599 93.13926 0 0 0
283 39.67520 -61.12065 92.92536 0 0 0
284 40.19374 -61.90079 93.10789 0 0 0
285 40.50398 -62.35412 92.35831 0 0 0
286 41.43031 -62.60464 92.43298 0 0 0
287 42.30663 -62.76904 92.76659 0 0 0
288 43.22470 -63.08871 92.99693 0 0 0
289 43.89483 -63.67539 92.64882 0 0 0
290 44.24517 -64.44081 92.17453 0 0 0
291 45.24192 -64.30917 91.99586 0 0 0
292 46.02245 -64.71035 91.73333 0 0 0
293 45.85398 -65.72674 91.64086 0 0 0
294 45.95277 -66.59124 92.02586 0 0 0
295 46.33502 -67.38493 92.42950 0 0 0
296 45.63425 -68.07901 92.11023 0 0 0
297 45.76487 -68.91034 91.65271 0 0 0
298 46.30693 -69.61506 91.31668 0 0 0
299 46.68668 -70.52405 91.58442 0 0 0
300 46.58725 -71.44680 91.95724 0 0 0
301 46.53654 -72.39680 91.65717 0 0 0
ITEM: TIMESTEP
2000
ITEM: NUMBER OF ATOMS
301
ITEM: BOX BOUNDS pp pp pp
-1.0000000000000000e+03 1.0000000000000000e+03
-1.0000000000000000e+03 1.0000000000000000e+03
-1.0000000000000000e+03 1.0000000000000000e+03
ITEM: ATOMS id x y z ix iy iz
1 -4.82076 -3.33135 7.22306 0 0 0
2 -5.12076 -2.45531 7.11117 0 0 0
3 -5.20270 -1.49119 7.19575 0 0 0
4 -5.50127 -1.31430 8.09267 0 0 0
5 -5.10378 -1.55280 9.00423 0 0 0
6 -5.16759 -1.51490 9.98510 0 0 0
7 -4.66809 -1.74943 10.75834 0 0 0
8 -3.71528 -1.75194 10.50847 0 0 0
9 -2.97512 -2.28880 10.82373 0 0 0
10 -3.04842 -1.55363 11.44541 0 0 0
11 -3.35228 -1.08933 12.30925 0 0 0
12 -2.85195 -1.64871 12.94863 0 0 0
13 -2.14636 -1.06515 13.26525 0 0 0
14 -2.92230 -0.85545 13.75565 0 0 0
15 -2.88493 -0.27260 14.52632 0 0 0
16 -3.53472 0.41260 14.90319 0 0 0
17 -3.53654 0.21422 15.87949 0 0 0
18 -3.78184 0.31601 16.81601 0 0 0
19 -4.18324 0.74869 17.54546 0 0 0
20 -3.70258 0.44774 18.29222 0 0 0
21 -3.49034 0.95559 19.14467 0 0 0
22 -3.57082 0.78027 20.11423 0 0 0
23 -3.43134 1.22621 20.92410 0 0 0
24 -2.69006 1.46816 21.43062 0 0 0
25 -1.87967 1.24420 22.00702 0 0 0
26 -1.05764 0.82945 22.41038 0 0 0
27 -0.23464 0.45535 22.93412 0 0 0
28 -0.69184 0.03433 23.69824 0 0 0
29 -0.91116 -0.30679 24.60318 0 0 0
30 -1.39952 -0.05240 25.49033 0 0 0
31 -1.79709 0.15049 26.33043 0 0 0
32 -1.90139 0.38077 27.29228 0 0 0
33 -1.49555 0.22173 28.17008 0 0 0
34 -0.86344 0.04063 28.84801 0 0 0
35 -0.34479 -0.45369 29.50070 0 0 0
36 -0.62778 -0.55571 30.41209 0 0 0
37 -1.44547 -0.09116 30.83282 0 0 0
38 -1.77472 -0.07683 31.78436 0 0 0
39 -1.34753 -0.40598 32.64379 0 0 0
40 -1.30094 -0.61616 33.58564 0 0 0
41 -1.48486 -0.67775 34.50891 0 0 0
42 -1.53564 -0.23024 35.37356 0 0 0
43 -1.16370 -0.09908 36.26512 0 0 0
44 -1.22839 0.15091 37.20243 0 0 0
45 -1.53787 0.49647 38.09432 0 0 0
46 -1.44711 -0.09966 38.85548 0 0 0
47 -2.13721 0.43608 39.59526 0 0 0
48 -1.88735 0.71669 40.54659 0 0 0
49 -1.82712 1.10696 41.44993 0 0 0
50 -1.37801 1.09490 42.35692 0 0 0
51 -0.85420 1.47850 43.17813 0 0 0
52 -0.92725 1.76607 44.18084 0 0 0
53 -0.19744 2.21171 44.48842 0 0 0
54 -0.09678 1.90056 45.48964 0 0 0
55 0.07483 1.88151 46.47168 0 0 0
56 -0.26961 1.37885 47.20861 0 0 0
57 -0.14603 1.56853 48.18868 0 0 0
58 0.60903 1.94950 48.81524 0 0 0
59 1.23225 1.77155 49.47677 0 0 0
60 1.43661 1.56194 50.39630 0 0 0
61 1.81900 1.23557 51.26057 0 0 0
62 1.85101 0.68296 52.17605 0 0 0
63 2.32286 -0.21258 52.49561 0 0 0
64 2.07089 -0.24602 53.40892 0 0 0
65 2.13736 -0.34858 54.42167 0 0 0
66 2.60969 -0.01244 55.18720 0 0 0
67 2.29526 -0.08910 56.06140 0 0 0
68 2.62387 -0.31496 56.99124 0 0 0
69 2.84373 -0.51447 57.92609 0 0 0
70 3.00018 -0.37541 59.00109 0 0 0
71 2.78514 -0.20193 59.97856 0 0 0
72 2.72759 -0.75830 60.71850 0 0 0
73 2.53026 -0.54796 61.65990 0 0 0
74 2.87860 -0.37351 62.56566 0 0 0
75 2.71385 0.06066 63.40315 0 0 0
76 2.28907 0.31220 64.29638 0 0 0
77 2.44468 0.34183 65.39745 0 0 0
78 2.06881 0.43285 66.32790 0 0 0
79 1.73669 0.79255 67.20520 0 0 0
80 1.13143 0.39021 67.94660 0 0 0
81 0.58260 0.41393 68.70671 0 0 0
82 -0.00146 0.22041 69.46793 0 0 0
83 0.18321 0.01438 70.39098 0 0 0
84 0.74030 -0.47115 71.04952 0 0 0
85 0.89292 -0.86706 71.93671 0 0 0
86 0.93519 -1.02532 72.91550 0 0 0
87 0.61376 -1.24234 73.81911 0 0 0
88 0.57832 -0.83982 74.67438 0 0 0
89 0.39866 -1.20802 75.49116 0 0 0
90 0.21401 -0.82233 76.46220 0 0 0
91 0.62475 -0.81759 77.27359 0 0 0
92 1.17205 -1.06554 78.08377 0 0 0
93 0.56849 -1.47174 78.88084 0 0 0
94 -0.03731 -1.43656 79.67696 0 0 0
95 -0.13992 -1.83127 80.55605 0 0 0
96 0.40806 -1.74296 81.42767 0 0 0
97 -0.23680 -1.90076 82.23078 0 0 0
98 -0.82291 -1.39608 82.79131 0 0 0
99 -0.80606 -1.06163 83.70551 0 0 0
100 -0.80146 -0.81967 84.58770 0 0 0
101 -0.86855 -1.37321 85.37655 0 0 0
102 -1.22092 -1.16254 86.33558 0 0 0
103 -1.65646 -0.52627 87.03492 0 0 0
104 -1.97064 0.40197 87.52813 0 0 0
105 -2.70632 1.06971 87.70557 0 0 0
106 -3.33600 1.32912 88.52805 0 0 0
107 -3.38921 2.08599 89.02252 0 0 0
108 -3.53072 2.49103 89.95707 0 0 0
109 -4.08328 2.79500 90.71809 0 0 0
110 -4.63146 3.34881 91.44761 0 0 0
111 -5.17103 3.71391 92.14859 0 0 0
112 -5.75151 3.54797 93.02281 0 0 0
113 -6.28102 4.05098 93.73450 0 0 0
114 -6.93120 4.17739 94.50843 0 0 0
115 -7.21943 4.62827 95.34566 0 0 0
116 -7.87373 4.70951 96.08514 0 0 0
117 -8.48135 4.01713 96.56726 0 0 0
118 -8.79713 3.99403 97.50091 0 0 0
119 -9.65702 4.01547 98.02556 0 0 0
120 -9.70711 4.17106 99.04283 0 0 0
121 -10.42331 4.18282 99.65978 0 0 0
122 -11.18672 4.25507 100.33276 0 0 0
123 -11.67544 4.30181 101.20218 0 0 0
124 -12.45417 4.49525 101.68021 0 0 0
125 -12.65328 4.66760 102.62474 0 0 0
126 -12.98850 5.19326 103.45328 0 0 0
127 -13.40525 5.44065 104.31668 0 0 0
128 -13.36465 6.38560 104.57246 0 0 0
129 -14.20922 6.50566 105.23326 0 0 0
130 -15.15434 6.68592 105.66074 0 0 0
131 -15.91737 6.67058 106.31484 0 0 0
132 -15.92201 7.70657 106.75056 0 0 0
133 -15.88849 8.34410 107.52043 0 0 0
134 -16.45337 8.87423 108.07717 0 0 0
135 -17.31430 9.04080 108.56442 0 0 0
136 -17.47446 9.43723 109.46606 0 0 0
137 -17.61813 9.91741 110.30909 0 0 0
138 -18.21163 10.13825 111.06717 0 0 0
139 -18.80845 10.34396 111.82382 0 0 0
140 -19.30894 10.47400 112.67334 0 0 0
141 -19.20152 10.75381 113.59875 0 0 0
142 -18.97875 11.18306 114.39852 0 0 0
143 -19.33415 11.55904 115.24529 0 0 0
144 -19.93266 12.03128 115.83035 0 0 0
145 -20.50107 12.65288 116.42490 0 0 0
146 -20.91488 13.15685 117.21603 0 0 0
147 -21.61734 13.12488 117.95099 0 0 0
148 -22.36863 13.62915 118.44053 0 0 0
149 -22.78515 14.01973 119.22876 0 0 0
150 -22.99153 14.86332 119.74697 0 0 0
151 -23.84742 15.35681 120.05394 0 0 0
152 -24.59864 15.94251 120.03988 0 0 0
153 -24.82477 16.67193 120.70528 0 0 0
154 -25.73863 16.97283 120.54722 0 0 0
155 -26.24778 17.48955 121.25136 0 0 0
156 -26.68004 18.06731 121.92021 0 0 0
157 -26.89012 18.39753 122.75958 0 0 0
158 -26.96493 19.00781 123.58831 0 0 0
159 -27.83224 19.25423 124.01840 0 0 0
160 -28.37536 19.74471 124.60989 0 0 0
161 -29.06691 20.09697 125.16684 0 0 0
162 -29.70710 20.10172 125.99187 0 0 0
163 -30.40185 19.49954 126.48414 0 0 0
164 -30.96160 19.67115 127.27745 0 0 0
165 -31.09267 20.07713 128.20967 0 0 0
166 -31.54912 20.84457 128.40805 0 0 0
167 -32.41598 20.92499 128.78515 0 0 0
168 -33.00950 21.49861 129.33360 0 0 0
169 -33.55383 21.80616 130.03697 0 0 0
170 -34.45480 21.55887 130.50097 0 0 0
171 -34.95635 21.53476 131.35142 0 0 0
172 -35.40660 21.75048 132.22061 0 0 0
173 -35.50631 21.54767 133.14899 0 0 0
174 -35.91373 21.51864 134.09632 0 0 0
175 -36.41892 21.32569 134.96986 0 0 0
176 -36.54720 21.03769 135.88791 0 0 0
177 -37.22289 20.93249 136.56582 0 0 0
178 -37.76848 21.63200 137.00573 0 0 0
179 -38.44109 21.87065 137.64827 0 0 0
180 -38.30228 21.99002 138.60776 0 0 0
181 -38.41487 22.89363 139.09991 0 0 0
182 -38.54657 23.74113 139.56827 0 0 0
183 -39.28378 24.51352 139.66233 0 0 0
184 -38.93952 25.50005 139.96871 0 0 0
185 -38.74612 26.05884 140.79426 0 0 0
186 -39.50226 26.47790 141.34629 0 0 0
187 -39.92581 27.03936 142.07072 0 0 0
188 -40.32457 27.97037 142.16584 0 0 0
189 -40.51028 27.92054 143.10992 0 0 0
190 -41.20295 27.77136 143.84764 0 0 0
191 -40.68636 28.23432 144.51599 0 0 0
192 -40.74727 28.08627 145.50007 0 0 0
193 -41.76696 28.31803 145.61760 0 0 0