ITEM: TIMESTEP
0
ITEM: NUMBER OF ATOMS
400
ITEM: BOX BOUNDS pp pp pp
-1.0000000000000000e+03 1.0000000000000000e+03
-1.0000000000000000e+03 1.0000000000000000e+03
-1.0000000000000000e+03 1.0000000000000000e+03
ITEM: ATOMS id x y z ix iy iz
1 0.00000 0.00000 0.00000 0 0 0
2 0.00000 0.00000 1.00000 0 0 0
3 0.00000 -0.50000 1.86603 0 0 0
4 0.00000 0.00000 2.73205 0 0 0
5 0.00000 -0.50000 3.59808 0 0 0
6 0.00000 0.00000 4.46410 0 0 0
7 0.00000 -0.50000 5.33013 0 0 0
8 0.00000 0.00000 6.19615 0 0 0
9 0.00000 -0.50000 7.06218 0 0 0
10 0.00000 0.00000 7.92820 0 0 0
11 0.00000 -0.50000 8.79423 0 0 0
12 0.00000 0.00000 9.66025 0 0 0
13 0.00000 -0.50000 10.52628 0 0 0
14 0.00000 0.00000 11.39230 0 0 0
15 0.00000 -0.50000 12.25833 0 0 0
16 0.00000 0.00000 13.12436 0 0 0
17 0.00000 -0.50000 13.99038 0 0 0
18 0.00000 0.00000 14.85641 0 0 0
19 0.00000 -0.50000 15.72243 0 0 0
20 0.00000 0.00000 16.58846 0 0 0
21 0.00000 -0.50000 17.45448 0 0 0
22 0.00000 0.00000 18.32051 0 0 0
23 0.00000 -0.50000 19.18653 0 0 0
24 0.00000 0.00000 20.05256 0 0 0
25 0.00000 -0.50000 20.91858 0 0 0
26 0.00000 0.00000 21.78461 0 0 0
27 0.00000 -0.50000 22.65064 0 0 0
28 0.00000 0.00000 23.51666 0 0 0
29 0.00000 -0.50000 24.38269 0 0 0
30 0.00000 0.00000 25.24871 0 0 0
31 0.00000 -0.50000 26.11474 0 0 0
32 0.00000 0.00000 26.98076 0 0 0
33 0.00000 -0.50000 27.84679 0 0 0
34 0.00000 0.00000 28.71281 0 0 0
35 0.00000 -0.50000 29.57884 0 0 0
36 0.00000 0.00000 30.44486 0 0 0
37 0.00000 -0.50000 31.31089 0 0 0
38 0.00000 0.00000 32.17691 0 0 0
39 0.00000 -0.50000 33.04294 0 0 0
40 0.00000 0.00000 33.90897 0 0 0
41 0.00000 -0.50000 34.77499 0 0 0
42 0.00000 0.00000 35.64102 0 0 0
43 0.00000 -0.50000 36.50704 0 0 0
44 0.00000 0.00000 37.37307 0 0 0
45 0.00000 -0.50000 38.23909 0 0 0
46 0.00000 0.00000 39.10512 0 0 0
47 0.00000 -0.50000 39.97114 0 0 0
48 0.00000 0.00000 40.83717 0 0 0
49 0.00000 -0.50000 41.70319 0 0 0
50 0.00000 0.00000 42.56922 0 0 0
51 0.00000 -0.50000 43.43524 0 0 0
52 0.00000 0.00000 44.30127 0 0 0
53 0.00000 -0.50000 45.16730 0 0 0
54 0.00000 0.00000 46.03332 0 0 0
55 0.00000 -0.50000 46.89935 0 0 0
56 0.00000 0.00000 47.76537 0 0 0
57 0.00000 -0.50000 48.63140 0 0 0
58 0.00000 0.00000 49.49742 0 0 0
59 0.00000 -0.50000 50.36345 0 0 0
60 0.00000 0.00000 51.22947 0 0 0
61 0.00000 -0.50000 52.09550 0 0 0
62 0.00000 0.00000 52.96152 0 0 0
63 0.00000 -0.50000 53.82755 0 0 0
64 0.00000 0.00000 54.69358 0 0 0
65 0.00000 -0.50000 55.55960 0 0 0
66 0.00000 0.00000 56.42563 0 0 0
67 0.00000 -0.50000 57.29165 0 0 0
68 0.00000 0.00000 58.15768 0 0 0
69 0.00000 -0.50000 59.02370 0 0 0
70 0.00000 0.00000 59.88973 0 0 0
71 0.00000 -0.50000 60.75575 0 0 0
72 0.00000 0.00000 61.62178 0 0 0
73 0.00000 -0.50000 62.48780 0 0 0
74 0.00000 0.00000 63.35383 0 0 0
75 0.00000 -0.50000 64.21985 0 0 0
76 0.00000 0.00000 65.08588 0 0 0
77 0.00000 -0.50000 65.95191 0 0 0
78 0.00000 0.00000 66.81793 0 0 0
79 0.00000 -0.50000 67.68396 0 0 0
80 0.00000 0.00000 68.54998 0 0 0
81 0.00000 -0.50000 69.41601 0 0 0
82 0.00000 0.00000 70.28203 0 0 0
83 0.00000 -0.50000 71.14806 0 0 0
84 0.00000 0.00000 72.01408 0 0 0
85 0.00000 -0.50000 72.88011 0 0 0
86 0.00000 0.00000 73.74613 0 0 0
87 0.00000 -0.50000 74.61216 0 0 0
88 0.00000 0.00000 75.47818 0 0 0
89 0.00000 -0.50000 76.34421 0 0 0
90 0.00000 0.00000 77.21024 0 0 0
91 0.00000 -0.50000 78.07626 0 0 0
92 0.00000 0.00000 78.94229 0 0 0
93 0.00000 -0.50000 79.80831 0 0 0
94 0.00000 0.00000 80.67434 0 0 0
95 0.00000 -0.50000 81.54036 0 0 0
96 0.00000 0.00000 82.40639 0 0 0
97 0.00000 -0.50000 83.27241 0 0 0
98 0.00000 0.00000 84.13844 0 0 0
99 0.00000 -0.50000 85.00446 0 0 0
100 0.00000 0.00000 85.87049 0 0 0
101 0.00000 -0.50000 86.73651 0 0 0
102 0.00000 0.00000 87.60254 0 0 0
103 0.00000 -0.50000 88.46857 0 0 0
104 0.00000 0.00000 89.33459 0 0 0
105 0.00000 -0.50000 90.20062 0 0 0
106 0.00000 0.00000 91.06664 0 0 0
107 0.00000 -0.50000 91.93267 0 0 0
108 0.00000 0.00000 92.79869 0 0 0
109 0.00000 -0.50000 93.66472 0 0 0
110 0.00000 0.00000 94.53074 0 0 0
111 0.00000 -0.50000 95.39677 0 0 0
112 0.00000 0.00000 96.26279 0 0 0
113 0.00000 -0.50000 97.12882 0 0 0
114 0.00000 0.00000 97.99485 0 0 0
115 0.00000 -0.50000 98.86087 0 0 0
116 0.00000 0.00000 99.72690 0 0 0
117 0.00000 -0.50000 100.59292 0 0 0
118 0.00000 0.00000 101.45895 0 0 0
119 0.00000 -0.50000 102.32497 0 0 0
120 0.00000 0.00000 103.19100 0 0 0
121 0.00000 -0.50000 104.05702 0 0 0
122 0.00000 0.00000 104.92305 0 0 0
123 0.00000 -0.50000 105.78907 0 0 0
124 0.00000 0.00000 106.65510 0 0 0
125 0.00000 -0.50000 107.52112 0 0 0
126 0.00000 0.00000 108.38715 0 0 0
127 0.00000 -0.50000 109.25318 0 0 0
128 0.00000 0.00000 110.11920 0 0 0
129 0.00000 -0.50000 110.98523 0 0 0
130 0.00000 0.00000 111.85125 0 0 0
131 0.00000 -0.50000 112.71728 0 0 0
132 0.00000 0.00000 113.58330 0 0 0
133 0.00000 -0.50000 114.44933 0 0 0
134 0.00000 0.00000 115.31535 0 0 0
135 0.27297 -0.46177 116.15931 0 0 0
136 0.54595 -1.28365 116.65931 0 0 0
137 0.81892 -1.26157 117.62107 0 0 0
138 1.09189 -2.08345 118.12107 0 0 0
139 1.36487 -2.06138 119.08284 0 0 0
140 1.63784 -2.88326 119.58284 0 0 0
141 1.91081 -2.86119 120.54461 0 0 0
142 2.18379 -3.68307 121.04461 0 0 0
143 2.45676 -3.66099 122.00638 0 0 0
144 2.72974 -4.48287 122.50638 0 0 0
145 3.00271 -4.46080 123.46815 0 0 0
146 3.27568 -5.28268 123.96815 0 0 0
147 3.54866 -5.26060 124.92992 0 0 0
148 3.82163 -6.08248 125.42992 0 0 0
149 4.09460 -6.06041 126.39168 0 0 0
150 4.36758 -6.88229 126.89168 0 0 0
151 4.64055 -6.86022 127.85345 0 0 0
152 4.91352 -7.68210 128.35345 0 0 0
153 5.18650 -7.66002 129.31522 0 0 0
154 5.45947 -8.48190 129.81522 0 0 0
155 5.73244 -8.45983 130.77699 0 0 0
156 6.00542 -9.28171 131.27699 0 0 0
157 6.27839 -9.25964 132.23876 0 0 0
158 6.55137 -10.08151 132.73876 0 0 0
159 6.82434 -10.05944 133.70052 0 0 0
160 7.09731 -10.88132 134.20052 0 0 0
161 7.37029 -10.85925 135.16229 0 0 0
162 7.64326 -11.68113 135.66229 0 0 0
163 7.91623 -11.65905 136.62406 0 0 0
164 8.18921 -12.48093 137.12406 0 0 0
165 8.46218 -12.45886 138.08583 0 0 0
166 8.73515 -13.28074 138.58583 0 0 0
167 9.00813 -13.25867 139.54760 0 0 0
168 9.28110 -14.08055 140.04760 0 0 0
169 9.55407 -14.05847 141.00937 0 0 0
170 9.82705 -14.88035 141.50937 0 0 0
171 10.10002 -14.85828 142.47113 0 0 0
172 10.37299 -15.68016 142.97113 0 0 0
173 10.64597 -15.65808 143.93290 0 0 0
174 10.91894 -16.47996 144.43290 0 0 0
175 11.19192 -16.45789 145.39467 0 0 0
176 11.46489 -17.27977 145.89467 0 0 0
177 11.73786 -17.25770 146.85644 0 0 0
178 12.01084 -18.07958 147.35644 0 0 0
179 12.28381 -18.05750 148.31821 0 0 0
180 12.55678 -18.87938 148.81821 0 0 0
181 12.82976 -18.85731 149.77998 0 0 0
182 13.10273 -19.67919 150.27998 0 0 0
183 13.37570 -19.65712 151.24174 0 0 0
184 13.64868 -20.47899 151.74174 0 0 0
185 13.92165 -20.45692 152.70351 0 0 0
186 14.19462 -21.27880 153.20351 0 0 0
187 14.46760 -21.25673 154.16528 0 0 0
188 14.74057 -22.07861 154.66528 0 0 0
189 15.01355 -22.05653 155.62705 0 0 0
190 15.28652 -22.87841 156.12705 0 0 0
191 15.55949 -22.85634 157.08882 0 0 0
192 15.83247 -23.67822 157.58882 0 0 0
193 16.10544 -23.65615 158.55059 0 0 0
194 16.37841 -24.47802 159.05059 0 0 0
195 16.65139 -24.45595 160.01235 0 0 0
196 16.92436 -25.27783 160.51235 0 0 0
197 17.19733 -25.25576 161.47412 0 0 0
198 17.47031 -26.07764 161.97412 0 0 0
199 17.74328 -26.05556 162.93589 0 0 0
200 18.01625 -26.87744 163.43589 0 0 0
201 18.28923 -26.85537 164.39766 0 0 0
202 18.56220 -27.67725 164.89766 0 0 0
203 18.83517 -27.65518 165.85943 0 0 0
204 19.10815 -28.47706 166.35943 0 0 0
205 19.38112 -28.45498 167.32120 0 0 0
206 19.65410 -29.27686 167.82120 0 0 0
207 19.92707 -29.25479 168.78296 0 0 0
208 20.20004 -30.07667 169.28296 0 0 0
209 20.47302 -30.05459 170.24473 0 0 0
210 20.74599 -30.87647 170.74473 0 0 0
211 21.01896 -30.85440 171.70650 0 0 0
212 21.29194 -31.67628 172.20650 0 0 0
213 21.56491 -31.65421 173.16827 0 0 0
214 21.83788 -32.47609 173.66827 0 0 0
215 22.11086 -32.45401 174.63004 0 0 0
216 22.38383 -33.27589 175.13004 0 0 0
217 22.65680 -33.25382 176.09181 0 0 0
218 22.92978 -34.07570 176.59181 0 0 0
219 23.20275 -34.05363 177.55357 0 0 0
220 23.47573 -34.87550 178.05357 0 0 0
221 23.74870 -34.85343 179.01534 0 0 0
222 24.02167 -35.67531 179.51534 0 0 0
223 24.29465 -35.65324 180.47711 0 0 0
224 24.56762 -36.47512 180.97711 0 0 0
225 24.84059 -36.45304 181.93888 0 0 0
226 25.11357 -37.27492 182.43888 0 0 0
227 25.38654 -37.25285 183.40065 0 0 0
228 25.65951 -38.07473 183.90065 0 0 0
229 25.93249 -38.05266 184.86241 0 0 0
230 26.20546 -38.87454 185.36241 0 0 0
231 26.47843 -38.85246 186.32418 0 0 0
232 26.75141 -39.67434 186.82418 0 0 0
233 27.02438 -39.65227 187.78595 0 0 0
234 27.29735 -40.47415 188.28595 0 0 0
235 27.57033 -40.45207 189.24772 0 0 0
236 27.84330 -41.27395 189.74772 0 0 0
237 28.11628 -41.25188 190.70949 0 0 0
238 28.38925 -42.07376 191.20949 0 0 0
239 28.66222 -42.05169 192.17126 0 0 0
240 28.93520 -42.87357 192.67126 0 0 0
241 29.20817 -42.85149 193.63302 0 0 0
242 29.48114 -43.67337 194.13302 0 0 0
243 29.75412 -43.65130 195.09479 0 0 0
244 30.02709 -44.47318 195.59479 0 0 0
245 30.30006 -44.45110 196.55656 0 0 0
246 30.57304 -45.27298 197.05656 0 0 0
247 30.84601 -45.25091 198.01833 0 0 0
248 31.11898 -46.07279 198.51833 0 0 0
249 31.39196 -46.05072 199.48010 0 0 0
250 31.66493 -46.87260 199.98010 0 0 0
251 31.93791 -46.85052 200.94187 0 0 0
252 32.21088 -47.67240 201.44187 0 0 0
253 32.48385 -47.65033 202.40363 0 0 0
254 32.75683 -48.47221 202.90363 0 0 0
255 33.02980 -48.45014 203.86540 0 0 0
256 33.30277 -49.27201 204.36540 0 0 0
257 33.57575 -49.24994 205.32717 0 0 0
258 33.84872 -50.07182 205.82717 0 0 0
259 34.12169 -50.04975 206.78894 0 0 0
260 34.39467 -50.87163 207.28894 0 0 0
261 34.66764 -50.84955 208.25071 0 0 0
262 34.94061 -51.67143 208.75071 0 0 0
263 35.21359 -51.64936 209.71248 0 0 0
264 35.48656 -52.47124 210.21248 0 0 0
265 35.75953 -52.44917 211.17424 0 0 0
266 36.03251 -53.27105 211.67424 0 0 0
267 36.30548 -53.24897 212.63601 0 0 0
268 -0.27297 0.96177 115.33743 0 0 0
269 -0.54595 1.78365 115.83743 0 0 0
270 -0.81892 2.62760 115.37566 0 0 0
271 -1.09189 3.44948 115.87566 0 0 0
272 -1.36487 4.29343 115.41389 0 0 0
273 -1.63784 5.11531 115.91389 0 0 0
274 -1.91081 5.95926 115.45212 0 0 0
275 -2.18379 6.78114 115.95212 0 0 0
276 -2.45676 7.62509 115.49035 0 0 0
277 -2.72974 8.44697 115.99035 0 0 0
278 -3.00271 9.29093 115.52859 0 0 0
279 -3.27568 10.11281 116.02859 0 0 0
280 -3.54866 10.95676 115.56682 0 0 0
281 -3.82163 11.77864 116.06682 0 0 0
282 -4.09460 12.62259 115.60505 0 0 0
283 -4.36758 13.44447 116.10505 0 0 0
284 -4.64055 14.28842 115.64328 0 0 0
285 -4.91352 15.11030 116.14328 0 0 0
286 -5.18650 15.95425 115.68151 0 0 0
287 -5.45947 16.77613 116.18151 0 0 0
288 -5.73244 17.62008 115.71974 0 0 0
289 -6.00542 18.44196 116.21974 0 0 0
290 -6.27839 19.28592 115.75798 0 0 0
291 -6.55137 20.10779 116.25798 0 0 0
292 -6.82434 20.95175 115.79621 0 0 0
293 -7.09731 21.77363 116.29621 0 0 0
294 -7.37029 22.61758 115.83444 0 0 0
295 -7.64326 23.43946 116.33444 0 0 0
296 -7.91623 24.28341 115.87267 0 0 0
297 -8.18921 25.10529 116.37267 0 0 0
298 -8.46218 25.94924 115.91090 0 0 0
299 -8.73515 26.77112 116.41090 0 0 0
300 -9.00813 27.61507 115.94913 0 0 0
301 -9.28110 28.43695 116.44913 0 0 0
302 -9.55407 29.28090 115.98737 0 0 0
303 -9.82705 30.10278 116.48737 0 0 0
304 -10.10002 30.94674 116.02560 0 0 0
305 -10.37299 31.76861 116.52560 0 0 0
306 -10.64597 32.61257 116.06383 0 0 0
307 -10.91894 33.43445 116.56383 0 0 0
308 -11.19192 34.27840 116.10206 0 0 0
309 -11.46489 35.10028 116.60206 0 0 0
310 -11.73786 35.94423 116.14029 0 0 0
311 -12.01084 36.76611 116.64029 0 0 0
312 -12.28381 37.61006 116.17852 0 0 0
313 -12.55678 38.43194 116.67852 0 0 0
314 -12.82976 39.27589 116.21676 0 0 0
315 -13.10273 40.09777 116.71676 0 0 0
316 -13.37570 40.94172 116.25499 0 0 0
317 -13.64868 41.76360 116.75499 0 0 0
318 -13.92165 42.60756 116.29322 0 0 0
319 -14.19462 43.42944 116.79322 0 0 0
320 -14.46760 44.27339 116.33145 0 0 0
321 -14.74057 45.09527 116.83145 0 0 0
322 -15.01355 45.93922 116.36968 0 0 0
323 -15.28652 46.76110 116.86968 0 0 0
324 -15.55949 47.60505 116.40791 0 0 0
325 -15.83247 48.42693 116.90791 0 0 0
326 -16.10544 49.27088 116.44615 0 0 0
327 -16.37841 50.09276 116.94615 0 0 0
328 -16.65139 50.93671 116.48438 0 0 0
329 -16.92436 51.75859 116.98438 0 0 0
330 -17.19733 52.60255 116.52261 0 0 0
331 -17.47031 53.42442 117.02261 0 0 0
332 -17.74328 54.26838 116.56084 0 0 0
333 -18.01625 55.09026 117.06084 0 0 0
334 -18.28923 55.93421 116.59907 0 0 0
335 -18.56220 56.75609 117.09907 0 0 0
336 -18.83517 57.60004 116.63730 0 0 0
337 -19.10815 58.42192 117.13730 0 0 0
338 -19.38112 59.26587 116.67554 0 0 0
339 -19.65410 60.08775 117.17554 0 0 0
340 -19.92707 60.93170 116.71377 0 0 0
341 -20.20004 61.75358 117.21377 0 0 0
342 -20.47302 62.59753 116.75200 0 0 0
343 -20.74599 63.41941 117.25200 0 0 0
344 -21.01896 64.26337 116.79023 0 0 0
345 -21.29194 65.08525 117.29023 0 0 0
346 -21.56491 65.92920 116.82846 0 0 0
347 -21.83788 66.75108 117.32846 0 0 0
348 -22.11086 67.59503 116.86670 0 0 0
349 -22.38383 68.41691 117.36670 0 0 0
350 -22.65680 69.26086 116.90493 0 0 0
351 -22.92978 70.08274 117.40493 0 0 0
352 -23.20275 70.92669 116.94316 0 0 0
353 -23.47573 71.74857 117.44316 0 0 0
354 -23.74870 72.59252 116.98139 0 0 0
355 -24.02167 73.41440 117.48139 0 0 0
356 -24.29465 74.25836 117.01962 0 0 0
357 -24.56762 75.08023 117.51962 0 0 0
358 -24.84059 75.92419 117.05785 0 0 0
359 -25.11357 76.74607 117.55785 0 0 0
360 -25.38654 77.59002 117.09609 0 0 0
361 -25.65951 78.41190 117.59609 0 0 0
362 -25.93249 79.25585 117.13432 0 0 0
363 -26.20546 80.07773 117.63432 0 0 0
364 -26.47843 80.92168 117.17255 0 0 0
365 -26.75141 81.74356 117.67255 0 0 0
366 -27.02438 82.58751 117.21078 0 0 0
367 -27.29735 83.40939 117.71078 0 0 0
368 -27.57033 84.25334 117.24901 0 0 0
369 -27.84330 85.07522 117.74901 0 0 0
370 -28.11628 85.91918 117.28724 0 0 0
371 -28.38925 86.74106 117.78724 0 0 0
372 -28.66222 87.58501 117.32548 0 0 0
373 -28.93520 88.40689 117.82548 0 0 0
374 -29.20817 89.25084 117.36371 0 0 0
375 -29.48114 90.07272 117.86371 0 0 0
376 -29.75412 90.91667 117.40194 0 0 0
377 -30.02709 91.73855 117.90194 0 0 0
378 -30.30006 92.58250 117.44017 0 0 0
379 -30.57304 93.40438 117.94017 0 0 0
380 -30.84601 94.24833 117.47840 0 0 0
381 -31.11898 95.07021 117.97840 0 0 0
382 -31.39196 95.91417 117.51663 0 0 0
383 -31.66493 96.73604 118.01663 0 0 0
384 -31.93791 97.58000 117.55487 0 0 0
385 -32.21088 98.40188 118.05487 0 0 0
386 -32.48385 99.24583 117.59310 0 0 0
387 -32.75683 100.06771 118.09310 0 0 0
388 -33.02980 100.91166 117.63133 0 0 0
389 -33.30277 101.73354 118.13133 0 0 0
390 -33.57575 102.57749 117.66956 0 0 0
391 -33.84872 103.39937 118.16956 0 0 0
392 -34.12169 104.24332 117.70779 0 0 0
393 -34.39467 105.06520 118.20779 0 0 0
394 -34.66764 105.90915 117.74602 0 0 0
395 -34.94061 106.73103 118.24602 0 0 0
396 -35.21359 107.57499 117.78426 0 0 0
397 -35.48656 108.39686 118.28426 0 0 0
398 -35.75953 109.24082 117.82249 0 0 0
399 -36.03251 110.06270 118.32249 0 0 0
400 -36.30548 110.90665 117.86072 0 0 0
ITEM: TIMESTEP
1000
ITEM: NUMBER OF ATOMS
400
ITEM: BOX BOUNDS pp pp pp
-1.0000000000000000e+03 1.0000000000000000e+03
-1.0000000000000000e+03 1.0000000000000000e+03
-1.0000000000000000e+03 1.0000000000000000e+03
ITEM: ATOMS id x y z ix iy iz
1 -0.62119 -1.83435 4.20003 0 0 0
2 -0.95505 -2.08286 5.15776 0 0 0
3 -0.86835 -2.28558 6.13753 0 0 0
4 -0.08727 -2.36046 6.76168 0 0 0
5 0.60239 -1.59743 6.92219 0 0 0
6 0.46006 -0.92459 7.61183 0 0 0
7 0.75251 -0.63214 8.54076 0 0 0
8 0.18598 0.21855 8.80792 0 0 0
9 -0.47464 0.44306 9.54384 0 0 0
10 -0.61609 0.12916 10.40997 0 0 0
11 -0.25838 -0.62100 10.93675 0 0 0
12 0.11473 -1.23566 11.64454 0 0 0
13 0.40146 -0.56607 12.32052 0 0 0
14 0.21535 0.26652 12.95207 0 0 0
15 0.70507 0.41791 13.86352 0 0 0
16 1.08986 0.18033 14.74681 0 0 0
17 1.33955 -0.52497 15.38487 0 0 0
18 1.96855 -0.48308 16.18966 0 0 0
19 1.59370 -0.48863 17.08449 0 0 0
20 2.32096 -1.06890 17.41047 0 0 0
21 2.27688 -1.64952 18.28733 0 0 0
22 2.29899 -1.64463 19.23247 0 0 0
23 2.41115 -2.11063 20.07243 0 0 0
24 2.54444 -2.58207 20.91013 0 0 0
25 2.25988 -2.10551 21.66090 0 0 0
26 2.20616 -2.67241 22.45384 0 0 0
27 1.90388 -2.15041 23.22940 0 0 0
28 1.62316 -1.72233 24.02573 0 0 0
29 1.04180 -1.07917 24.58605 0 0 0
30 0.79903 -1.05895 25.49993 0 0 0
31 1.17684 -0.60157 26.39717 0 0 0
32 0.97880 -0.64084 27.36121 0 0 0
33 0.72843 -0.83373 28.24654 0 0 0
34 1.25605 -0.37292 28.90607 0 0 0
35 1.41635 -0.21399 29.86281 0 0 0
36 1.04173 0.55050 30.41006 0 0 0
37 0.67651 0.45580 31.37890 0 0 0
38 0.61912 0.15268 32.32215 0 0 0
39 0.11334 0.28151 33.30796 0 0 0
40 0.06000 0.55624 34.24754 0 0 0
41 0.16920 0.67401 35.21071 0 0 0
42 -0.41539 0.76484 36.06500 0 0 0
43 0.21652 0.16944 36.69545 0 0 0
44 0.58356 0.35308 37.64740 0 0 0
45 0.15209 0.16557 38.57698 0 0 0
46 0.09713 0.14535 39.63622 0 0 0
47 -0.21153 -0.04467 40.58030 0 0 0
48 0.23303 0.25971 41.33543 0 0 0
49 0.32789 0.41406 42.36206 0 0 0
50 0.18662 0.38659 43.41033 0 0 0
51 0.71260 0.50387 44.17476 0 0 0
52 0.36692 0.25276 45.06688 0 0 0
53 0.54568 -0.22750 45.99417 0 0 0
54 0.66006 -0.05397 46.94583 0 0 0
55 0.00396 0.10573 47.72873 0 0 0
56 -0.37146 0.30178 48.61876 0 0 0
57 -0.49510 -0.02216 49.57333 0 0 0
58 -0.31814 -0.48582 50.40253 0 0 0
59 -0.91181 -0.44419 51.10500 0 0 0
60 -1.01227 -0.57029 52.05738 0 0 0
61 -1.58946 -0.32677 52.83069 0 0 0
62 -2.14865 -0.31050 53.72660 0 0 0
63 -2.26969 -0.56145 54.63175 0 0 0
64 -1.77222 -0.25412 55.39865 0 0 0
65 -0.90762 -0.00369 55.77548 0 0 0
66 -0.06721 -0.21344 56.25478 0 0 0
67 0.37548 -0.12434 57.08432 0 0 0
68 -0.29419 -0.21909 57.79167 0 0 0
69 -0.32821 -0.31529 58.75706 0 0 0
70 -0.44615 0.02890 59.72983 0 0 0
71 -0.54582 0.22280 60.64881 0 0 0
72 -0.91467 -0.22227 61.50829 0 0 0
73 -1.29045 -0.03516 62.42477 0 0 0
74 -1.38228 -0.78510 63.12065 0 0 0
75 -1.11518 -0.57720 64.14905 0 0 0
76 -1.15532 -0.67808 65.10264 0 0 0
77 -1.14421 -0.87417 66.07476 0 0 0
78 -1.69286 -0.19738 66.62652 0 0 0
79 -1.80031 0.27713 67.49361 0 0 0
80 -1.57521 0.72230 68.34031 0 0 0
81 -1.81795 0.19055 69.16978 0 0 0
82 -1.79529 -0.61173 69.78903 0 0 0
83 -1.96518 -0.68484 70.77533 0 0 0
84 -1.92604 -0.56736 71.76196 0 0 0
85 -2.04993 -0.73760 72.72350 0 0 0
86 -1.45891 -0.18801 73.43440 0 0 0
87 -1.23289 -0.54026 74.35292 0 0 0
88 -0.86582 -0.62849 75.24627 0 0 0
89 -0.75042 -0.74960 76.31876 0 0 0
90 -0.46320 -0.69319 77.23165 0 0 0
91 -0.95087 -0.60545 78.07273 0 0 0
92 -0.22657 -0.40281 78.75877 0 0 0
93 0.12862 -0.91304 79.61239 0 0 0
94 0.27569 -0.77335 80.61700 0 0 0
95 0.23379 -0.60350 81.58297 0 0 0
96 0.36675 0.01542 82.37214 0 0 0
97 -0.04898 0.04583 83.30224 0 0 0
98 0.23203 0.33994 84.17199 0 0 0
99 0.52091 -0.16241 85.10515 0 0 0
100 0.67313 -0.13202 86.11825 0 0 0
101 0.32236 -0.16837 87.03732 0 0 0
102 0.25627 -0.40280 87.95079 0 0 0
103 -0.06262 -0.01994 88.87910 0 0 0
104 -0.52824 0.24547 89.70870 0 0 0
105 -0.20736 -0.28777 90.52631 0 0 0
106 0.24031 -0.44033 91.41668 0 0 0
107 0.44644 -0.77136 92.27227 0 0 0
108 0.68235 -1.23010 93.06915 0 0 0
109 0.91430 -0.89734 94.09047 0 0 0
110 1.17135 -1.39873 95.02242 0 0 0
111 1.61848 -1.92125 95.76862 0 0 0
112 1.44403 -1.45770 96.62089 0 0 0
113 0.96243 -1.04691 97.36009 0 0 0
114 0.29302 -0.65912 98.07097 0 0 0
115 -0.47115 -0.29216 98.47445 0 0 0
116 -0.92341 -0.22795 99.36074 0 0 0
117 -1.55925 -0.08860 100.14156 0 0 0
118 -1.23666 0.45119 100.89652 0 0 0
119 -1.27394 0.87462 101.79215 0 0 0
120 -1.00155 1.36494 102.64109 0 0 0
121 -0.89758 1.59956 103.78200 0 0 0
122 -0.93139 1.69577 104.72713 0 0 0
123 -0.76069 1.90598 105.72626 0 0 0
124 -0.69917 1.54381 106.64132 0 0 0
125 -1.10168 2.14902 107.28974 0 0 0
126 -1.17517 1.87190 108.23913 0 0 0
127 -0.66474 1.84851 109.03502 0 0 0
128 -0.66443 1.80421 109.95276 0 0 0
129 -0.44571 2.04278 110.87923 0 0 0
130 0.04690 1.75130 111.68923 0 0 0
131 -0.36850 1.45938 112.54095 0 0 0
132 -0.77643 1.32688 113.39864 0 0 0
133 -0.98577 1.57251 114.34718 0 0 0
134 -0.68835 1.43863 115.27735 0 0 0
135 -0.39628 0.92848 116.10545 0 0 0
136 -0.26487 0.28544 116.86829 0 0 0
137 -0.31513 0.48701 117.90192 0 0 0
138 -0.10171 -0.39033 118.28211 0 0 0
139 -0.16027 -0.80908 119.24473 0 0 0
140 0.30346 -1.09436 120.01502 0 0 0
141 0.80039 -1.75385 120.53039 0 0 0
142 1.14129 -2.59411 121.12595 0 0 0
143 1.77171 -2.93245 121.92713 0 0 0
144 2.09677 -3.74509 122.40583 0 0 0
145 2.58013 -4.24258 123.16385 0 0 0
146 2.49575 -5.27747 123.43177 0 0 0
147 2.64220 -5.49056 124.39713 0 0 0
148 2.77657 -5.55216 125.47408 0 0 0
149 3.49958 -6.02891 125.98380 0 0 0
150 4.05419 -6.63945 126.55045 0 0 0
151 4.79311 -6.89273 127.07651 0 0 0
152 5.52125 -7.16996 127.62363 0 0 0
153 6.22749 -7.48235 128.23462 0 0 0
154 6.71345 -8.29215 128.62238 0 0 0
155 6.67127 -9.09893 129.21650 0 0 0
156 6.45794 -9.89059 129.70430 0 0 0
157 6.70806 -10.47332 130.48137 0 0 0
158 7.09936 -11.03171 131.34805 0 0 0
159 7.31475 -11.37878 132.30658 0 0 0
160 7.38843 -11.02261 133.23478 0 0 0
161 7.66803 -10.92753 134.21100 0 0 0
162 7.58349 -11.56958 135.05912 0 0 0
163 7.59658 -12.33339 135.62451 0 0 0
164 8.20933 -12.09347 136.47632 0 0 0
165 7.96014 -12.77029 137.19180 0 0 0
166 8.10977 -13.26517 138.12822 0 0 0
167 8.26628 -13.39739 139.13018 0 0 0
168 7.93579 -13.93976 139.93720 0 0 0
169 8.13873 -14.78558 140.54722 0 0 0
170 8.64231 -14.89036 141.39779 0 0 0
171 8.92782 -15.59519 142.18456 0 0 0
172 9.48730 -16.13640 142.76184 0 0 0
173 9.75233 -16.36871 143.69430 0 0 0
174 9.67732 -16.38291 144.64320 0 0 0
175 10.08620 -16.31795 145.58840 0 0 0
176 10.46087 -16.70804 146.45313 0 0 0
177 11.03242 -17.45715 146.99229 0 0 0
178 11.85582 -17.24328 147.55679 0 0 0
179 12.04364 -17.34142 148.47427 0 0 0
180 12.56430 -17.92437 149.08228 0 0 0
181 12.58576 -18.77014 149.80797 0 0 0
182 13.14728 -18.99003 150.63420 0 0 0
183 13.56199 -19.23288 151.47905 0 0 0
184 13.14509 -20.05718 151.94434 0 0 0
185 13.82255 -20.35185 152.70250 0 0 0
186 14.39763 -20.81179 153.43362 0 0 0
187 14.93548 -20.85125 154.26308 0 0 0
188 15.08706 -21.37104 155.09622 0 0 0
189 14.78372 -21.86527 155.87885 0 0 0
190 15.06860 -21.77053 156.82058 0 0 0
191 15.28670 -22.64584 157.20074 0 0 0
192 14.75545 -23.41407 157.42778 0 0 0
193 14.92289 -24.41328 157.69088 0 0 0
194 15.36465 -24.96088 158.39636 0 0 0
195 15.60833 -25.49417 159.16012 0 0 0
196 16.00138 -25.66571 160.04762 0 0 0
197 16.50931 -26.13392 160.81637 0 0 0
198 16.85090 -26.20931 161.71971 0 0 0
199 16.52533 -27.10793 161.73948 0 0 0
200 17.14074 -27.60172 162.34514 0 0 0
201 17.40527 -27.67528 163.30635 0 0 0
202 17.68378 -28.10487 164.18052 0 0 0
203 17.99239 -28.68467 164.90492 0 0 0
204 18.55644 -28.57763 165.67768 0 0 0
205 19.25774 -29.05578 166.20216 0 0 0
206 19.53162 -29.81105 166.89117 0 0 0
207 20.10969 -30.13651 167.66617 0 0 0
208 20.28177 -30.93818 168.37476 0 0 0
209 20.86464 -31.16804 169.08891 0 0 0
210 21.17577 -31.79219 169.80830 0 0 0
211 21.20293 -32.63124 170.44581 0 0 0
212 20.73616 -32.74333 171.26853 0 0 0
213 21.08814 -33.34698 172.07964 0 0 0
214 20.81297 -33.12768 173.08153 0 0 0
215 20.79383 -33.73005 173.84937 0 0 0
216 20.96096 -34.12625 174.76159 0 0 0
217 21.26999 -34.44397 175.61640 0 0 0
218 21.35298 -34.56932 176.53957 0 0 0
219 21.65171 -35.13274 177.31866 0 0 0
220 22.31474 -35.31273 177.97707 0 0 0
221 22.92663 -34.92252 178.62749 0 0 0
222 23.18403 -35.58790 179.33023 0 0 0
223 23.18140 -36.07132 180.22744 0 0 0
224 23.70715 -36.50710 180.96905 0 0 0
225 23.52967 -36.08386 181.98267 0 0 0
226 23.62181 -36.22761 182.94492 0 0 0
227 23.91855 -36.38803 183.86323 0 0 0
228 23.60315 -36.30329 184.82663 0 0 0
229 24.15247 -36.75186 185.46191 0 0 0
230 24.50378 -37.09170 186.33587 0 0 0
231 24.99617 -36.96859 187.16235 0 0 0
232 24.69911 -37.32713 187.99158 0 0 0
233 24.92473 -38.15607 188.34749 0 0 0
234 25.26054 -39.11313 188.55610 0 0 0
235 25.42949 -39.46010 189.49272 0 0 0
236 26.16127 -40.06383 189.84064 0 0 0
237 26.99000 -40.22515 190.38893 0 0 0
238 27.50802 -40.35128 191.19770 0 0 0
239 28.13367 -40.51972 191.92820 0 0 0
240 29.01168 -40.78065 192.16605 0 0 0
241 29.27830 -41.15026 193.00522 0 0 0
242 29.80174 -41.97255 193.18526 0 0 0
243 30.39147 -42.69331 193.58022 0 0 0
244 31.15309 -43.16893 194.02237 0 0 0
245 32.15791 -43.08774 194.33336 0 0 0
246 32.83027 -43.22200 195.07628 0 0 0
247 33.57511 -43.21700 195.69862 0 0 0
248 34.32268 -43.51485 196.23625 0 0 0
249 34.54768 -44.35929 196.73552 0 0 0
250 34.58910 -44.45803 197.70468 0 0 0
251 34.63501 -44.73824 198.65747 0 0 0
252 34.45320 -44.97787 199.66414 0 0 0
253 33.69699 -44.86024 200.23700 0 0 0
254 33.76181 -45.41780 201.03893 0 0 0
255 34.32250 -46.01827 201.62041 0 0 0
256 34.10131 -46.33166 202.58361 0 0 0
257 34.63273 -46.17805 203.38869 0 0 0
258 35.30117 -47.07970 203.50590 0 0 0
259 35.16272 -47.89778 204.15719 0 0 0
260 35.71181 -48.40343 204.78804 0 0 0
261 36.07501 -49.31715 204.75800 0 0 0
262 36.26662 -50.11208 205.23387 0 0 0
263 35.75898 -49.44443 205.85507 0 0 0
264 35.29671 -49.22326 206.63840 0 0 0
265 35.04758 -50.13968 206.89443 0 0 0
266 34.48039 -50.75122 207.43667 0 0 0
267 34.58328 -51.77268 207.15428 0 0 0
268 -0.60541 2.36658 115.62987 0 0 0
269 -0.35044 3.29077 115.50904 0 0 0
270 -0.79287 3.99610 115.10428 0 0 0
271 -1.40495 4.81476 114.72340 0 0 0
272 -1.66212 5.67256 115.13232 0 0 0
273 -2.15280 6.42790 114.76998 0 0 0
274 -2.71443 7.25469 114.68639 0 0 0
275 -2.85795 7.80094 115.54591 0 0 0
276 -3.11331 8.55441 116.32955 0 0 0
277 -3.33114 9.57248 116.45697 0 0 0
278 -3.18580 10.53231 116.57783 0 0 0
279 -4.05455 10.99262 116.49798 0 0 0
280 -4.32817 11.93820 116.42968 0 0 0
281 -3.95721 12.72115 115.88694 0 0 0
282 -4.02589 13.30060 116.65974 0 0 0
283 -4.63297 14.10798 116.35211 0 0 0
284 -4.49047 14.95578 115.88217 0 0 0
285 -5.19276 15.68818 115.68116 0 0 0
286 -5.66562 16.27761 116.24053 0 0 0
287 -6.27071 16.98838 116.01999 0 0 0
288 -6.69507 17.85523 116.27362 0 0 0
289 -6.90622 18.81097 116.06296 0 0 0
290 -7.44297 19.45347 116.54605 0 0 0
291 -7.11756 20.37515 116.72800 0 0 0
292 -7.35071 21.30625 116.45332 0 0 0
293 -7.24901 22.26531 116.22519 0 0 0
294 -7.50524 23.23361 116.05138 0 0 0
295 -7.74006 24.08964 116.52525 0 0 0
296 -6.99180 24.51102 116.09009 0 0 0
297 -6.74198 25.27265 115.52346 0 0 0
298 -6.79197 26.18928 115.66876 0 0 0
299 -7.77561 26.48384 115.66041 0 0 0
300 -7.94210 27.43935 115.48564 0 0 0
301 -8.78803 28.00568 115.44944 0 0 0
302 -9.00351 29.03635 115.49013 0 0 0
303 -9.59289 29.79910 115.30155 0 0 0
304 -9.80718 30.79069 115.16336 0 0 0
305 -9.91650 31.68302 115.47704 0 0 0
306 -10.45779 32.38989 115.89604 0 0 0
307 -10.67657 33.37685 115.85710 0 0 0
308 -10.77168 34.27722 116.29866 0 0 0
309 -11.47996 35.09256 116.19063 0 0 0
310 -11.26693 35.84312 115.61502 0 0 0
311 -11.60008 36.75335 115.44404 0 0 0
312 -11.84146 37.68178 115.14950 0 0 0
313 -12.26041 38.60250 115.32471 0 0 0
314 -12.32714 39.32319 116.00622 0 0 0
315 -12.73452 40.23357 115.94016 0 0 0
316 -12.85384 41.05310 115.37665 0 0 0
317 -12.85544 41.82691 114.73636 0 0 0
318 -12.58984 42.73221 115.27672 0 0 0
319 -13.23905 43.26011 115.78472 0 0 0
320 -13.89167 43.94518 115.73813 0 0 0
321 -14.77804 44.30981 115.38646 0 0 0
322 -15.26287 45.13890 115.53003 0 0 0
323 -14.98740 46.04640 115.81490 0 0 0
324 -15.23158 46.95912 116.13789 0 0 0
325 -15.26760 47.77781 116.72530 0 0 0
326 -15.63022 48.68753 116.27487 0 0 0
327 -15.99097 49.67279 116.09919 0 0 0
328 -16.02478 50.60346 115.88039 0 0 0
329 -16.08355 51.46546 116.24040 0 0 0
330 -16.64499 52.27967 115.98511 0 0 0
331 -16.62014 53.20224 115.66020 0 0 0
332 -16.74392 54.17076 115.51329 0 0 0
333 -17.12193 55.08298 115.24885 0 0 0
334 -17.30729 55.94114 115.75944 0 0 0
335 -17.66329 56.59088 115.20009 0 0 0
336 -17.95665 57.47673 114.86057 0 0 0
337 -18.52350 58.24299 114.69579 0 0 0
338 -19.29573 58.95337 114.75087 0 0 0
339 -19.97484 59.66424 114.71154 0 0 0
340 -19.69804 60.29568 115.48882 0 0 0
341 -20.12567 61.20393 115.45476 0 0 0
342 -20.84098 61.79027 115.73237 0 0 0
343 -21.11484 62.70006 115.72240 0 0 0
344 -21.18067 63.63503 115.41692 0 0 0
345 -20.98166 64.57328 115.85314 0 0 0
346 -21.73730 65.25940 116.08026 0 0 0
347 -22.11422 66.09687 115.78240 0 0 0
348 -22.47257 66.97486 115.87957 0 0 0
349 -22.38161 67.98730 115.57181 0 0 0
350 -22.73129 68.79742 115.97678 0 0 0
351 -22.69343 69.82889 115.91751 0 0 0
352 -22.51838 70.46909 115.22509 0 0 0
353 -22.60347 71.24464 115.79791 0 0 0
354 -22.86664 72.21165 115.82719 0 0 0
355 -23.37260 73.03636 115.81680 0 0 0
356 -23.68737 73.99264 115.93871 0 0 0
357 -23.73660 75.01916 116.04064 0 0 0
358 -23.68838 75.87243 116.53716 0 0 0
359 -24.16744 76.69446 116.93416 0 0 0
360 -24.47275 77.63813 117.01079 0 0 0
361 -24.40239 78.56069 117.52926 0 0 0
362 -24.78005 79.47544 117.74634 0 0 0
363 -24.87527 80.42581 117.57781 0 0 0
364 -25.21921 81.23098 117.09300 0 0 0
365 -25.11267 82.22895 117.45914 0 0 0
366 -25.64503 83.02899 117.68747 0 0 0
367 -25.71837 83.82184 118.24955 0 0 0
368 -26.36983 84.57524 118.24230 0 0 0
369 -26.67835 85.47031 118.28515 0 0 0
370 -27.39722 86.10156 117.77418 0 0 0
371 -27.43847 86.75423 117.03894 0 0 0
372 -27.56814 87.64105 117.39653 0 0 0
373 -27.32093 88.60465 117.64185 0 0 0
374 -26.81561 89.41971 117.47167 0 0 0
375 -27.26487 90.28891 117.81796 0 0 0
376 -27.06866 91.19622 118.10013 0 0 0
377 -27.00197 92.17949 118.29470 0 0 0
378 -27.08231 93.17859 118.07807 0 0 0
379 -26.86497 94.08330 118.21167 0 0 0
380 -27.15656 94.79925 118.92227 0 0 0
381 -28.08962 95.12056 118.79158 0 0 0
382 -28.87616 95.69538 118.86187 0 0 0
383 -29.54432 96.01821 118.31081 0 0 0
384 -30.44208 96.40313 118.52792 0 0 0
385 -31.19255 97.00598 118.71619 0 0 0
386 -31.06885 97.99823 118.72001 0 0 0
387 -31.21949 98.92511 119.05789 0 0 0
388 -31.61819 99.86151 119.30034 0 0 0
389 -31.97099 100.55009 118.67571 0 0 0