ITEM: TIMESTEP
0
ITEM: NUMBER OF ATOMS
100
ITEM: BOX BOUNDS pp pp pp
-1.0000000000000000e+03 1.0000000000000000e+03
-1.0000000000000000e+03 1.0000000000000000e+03
-1.0000000000000000e+03 1.0000000000000000e+03
ITEM: ATOMS id x y z ix iy iz
1 0.00000 0.00000 0.00000 0 0 0
2 0.00000 0.00000 1.00000 0 0 0
3 0.00000 -0.50000 1.86603 0 0 0
4 0.00000 0.00000 2.73205 0 0 0
5 0.00000 -0.50000 3.59808 0 0 0
6 0.00000 0.00000 4.46410 0 0 0
7 0.00000 -0.50000 5.33013 0 0 0
8 0.00000 0.00000 6.19615 0 0 0
9 0.00000 -0.50000 7.06218 0 0 0
10 0.00000 0.00000 7.92820 0 0 0
11 0.00000 -0.50000 8.79423 0 0 0
12 0.00000 0.00000 9.66025 0 0 0
13 0.00000 -0.50000 10.52628 0 0 0
14 0.00000 0.00000 11.39230 0 0 0
15 0.00000 -0.50000 12.25833 0 0 0
16 0.00000 0.00000 13.12436 0 0 0
17 0.00000 -0.50000 13.99038 0 0 0
18 0.00000 0.00000 14.85641 0 0 0
19 0.00000 -0.50000 15.72243 0 0 0
20 0.00000 0.00000 16.58846 0 0 0
21 0.00000 -0.50000 17.45448 0 0 0
22 0.00000 0.00000 18.32051 0 0 0
23 0.00000 -0.50000 19.18653 0 0 0
24 0.00000 0.00000 20.05256 0 0 0
25 0.00000 -0.50000 20.91858 0 0 0
26 0.00000 0.00000 21.78461 0 0 0
27 0.00000 -0.50000 22.65064 0 0 0
28 0.00000 0.00000 23.51666 0 0 0
29 0.00000 -0.50000 24.38269 0 0 0
30 0.00000 0.00000 25.24871 0 0 0
31 0.00000 -0.50000 26.11474 0 0 0
32 0.00000 0.00000 26.98076 0 0 0
33 0.00000 -0.50000 27.84679 0 0 0
34 0.00000 0.00000 28.71281 0 0 0
35 0.86530 0.28073 29.12808 0 0 0
36 1.73060 0.31622 29.62808 0 0 0
37 2.59589 0.76697 29.84735 0 0 0
38 3.46119 0.80246 30.34735 0 0 0
39 4.32649 1.25321 30.56662 0 0 0
40 5.19179 1.28869 31.06662 0 0 0
41 6.05709 1.73945 31.28589 0 0 0
42 6.92238 1.77493 31.78589 0 0 0
43 7.78768 2.22569 32.00516 0 0 0
44 8.65298 2.26117 32.50516 0 0 0
45 9.51828 2.71193 32.72443 0 0 0
46 10.38358 2.74741 33.22443 0 0 0
47 11.24888 3.19817 33.44370 0 0 0
48 12.11417 3.23365 33.94370 0 0 0
49 12.97947 3.68441 34.16297 0 0 0
50 13.84477 3.71989 34.66297 0 0 0
51 14.71007 4.17065 34.88224 0 0 0
52 15.57537 4.20613 35.38224 0 0 0
53 16.44066 4.65689 35.60151 0 0 0
54 17.30596 4.69237 36.10151 0 0 0
55 18.17126 5.14313 36.32078 0 0 0
56 19.03656 5.17861 36.82078 0 0 0
57 19.90186 5.62937 37.04005 0 0 0
58 20.76715 5.66485 37.54005 0 0 0
59 21.63245 6.11561 37.75932 0 0 0
60 22.49775 6.15109 38.25932 0 0 0
61 23.36305 6.60185 38.47858 0 0 0
62 24.22835 6.63733 38.97858 0 0 0
63 25.09365 7.08809 39.19785 0 0 0
64 25.95894 7.12357 39.69785 0 0 0
65 26.82424 7.57433 39.91712 0 0 0
66 27.68954 7.60981 40.41712 0 0 0
67 28.55484 8.06057 40.63639 0 0 0
68 -0.86530 0.21927 29.16357 0 0 0
69 -1.73060 0.18378 29.66357 0 0 0
70 -2.59589 0.59906 29.94430 0 0 0
71 -3.46119 0.56357 30.44430 0 0 0
72 -4.32649 0.97884 30.72503 0 0 0
73 -5.19179 0.94336 31.22503 0 0 0
74 -6.05709 1.35863 31.50576 0 0 0
75 -6.92238 1.32314 32.00576 0 0 0
76 -7.78768 1.73841 32.28649 0 0 0
77 -8.65298 1.70293 32.78649 0 0 0
78 -9.51828 2.11820 33.06722 0 0 0
79 -10.38358 2.08271 33.56722 0 0 0
80 -11.24888 2.49798 33.84795 0 0 0
81 -12.11417 2.46250 34.34795 0 0 0
82 -12.97947 2.87777 34.62868 0 0 0
83 -13.84477 2.84228 35.12868 0 0 0
84 -14.71007 3.25755 35.40941 0 0 0
85 -15.57537 3.22207 35.90941 0 0 0
86 -16.44066 3.63734 36.19014 0 0 0
87 -17.30596 3.60186 36.69014 0 0 0
88 -18.17126 4.01713 36.97087 0 0 0
89 -19.03656 3.98164 37.47087 0 0 0
90 -19.90186 4.39691 37.75161 0 0 0
91 -20.76715 4.36143 38.25161 0 0 0
92 -21.63245 4.77670 38.53234 0 0 0
93 -22.49775 4.74121 39.03234 0 0 0
94 -23.36305 5.15648 39.31307 0 0 0
95 -24.22835 5.12100 39.81307 0 0 0
96 -25.09365 5.53627 40.09380 0 0 0
97 -25.95894 5.50078 40.59380 0 0 0
98 -26.82424 5.91605 40.87453 0 0 0
99 -27.68954 5.88057 41.37453 0 0 0
100 -28.55484 6.29584 41.65526 0 0 0
ITEM: TIMESTEP
1000
ITEM: NUMBER OF ATOMS
100
ITEM: BOX BOUNDS pp pp pp
-1.0000000000000000e+03 1.0000000000000000e+03
-1.0000000000000000e+03 1.0000000000000000e+03
-1.0000000000000000e+03 1.0000000000000000e+03
ITEM: ATOMS id x y z ix iy iz
1 -0.17514 -1.59878 3.55535 0 0 0
2 -0.78065 -0.87758 3.92198 0 0 0
3 -0.83480 -1.11518 4.91572 0 0 0
4 -0.41590 -0.52193 5.56081 0 0 0
5 -0.83356 0.02148 6.29937 0 0 0
6 -0.96860 1.00745 6.57628 0 0 0
7 -0.54556 0.84653 7.45559 0 0 0
8 -0.17760 0.84846 8.32846 0 0 0
9 0.22243 0.15687 8.85996 0 0 0
10 -0.30341 0.01774 9.72988 0 0 0
11 -0.40623 -0.12242 10.68761 0 0 0
12 0.07862 -0.13073 11.55900 0 0 0
13 -0.63403 -0.64180 11.88050 0 0 0
14 -0.66093 -0.46334 12.86023 0 0 0
15 -0.83490 -0.72945 13.74782 0 0 0
16 -0.82346 -0.91139 14.73146 0 0 0
17 -0.87833 -0.82712 15.76608 0 0 0
18 -1.26355 -0.26631 16.45020 0 0 0
19 -1.13704 0.14706 17.36487 0 0 0
20 -1.05917 -0.40782 18.10678 0 0 0
21 -1.76613 -0.95307 18.58324 0 0 0
22 -2.00426 -0.78136 19.48437 0 0 0
23 -1.79578 -1.11036 20.41987 0 0 0
24 -1.33286 -0.67229 21.15553 0 0 0
25 -1.37523 -0.73554 22.10680 0 0 0
26 -1.30569 -0.62091 23.08165 0 0 0
27 -1.08359 -0.65773 24.12458 0 0 0
28 -1.15699 0.00643 24.89829 0 0 0
29 -0.92423 0.27625 25.74992 0 0 0
30 -0.64040 0.35560 26.69352 0 0 0
31 -0.66192 0.82609 27.62271 0 0 0
32 0.15480 0.38667 27.88026 0 0 0
33 0.44220 1.06289 28.48861 0 0 0
34 0.68808 1.67289 29.18538 0 0 0
35 1.56992 1.86179 29.59693 0 0 0
36 2.33240 1.45279 30.04126 0 0 0
37 3.09047 1.31201 30.65303 0 0 0
38 3.98111 1.51086 30.92540 0 0 0
39 4.86517 1.91422 31.36405 0 0 0
40 5.78249 2.07424 31.71287 0 0 0
41 6.45630 2.91485 31.76897 0 0 0
42 7.21869 2.78130 32.30607 0 0 0
43 8.01301 3.00809 32.76346 0 0 0
44 8.70796 3.59058 33.13906 0 0 0
45 9.20624 3.83805 33.99376 0 0 0
46 10.11937 4.05273 34.33336 0 0 0
47 11.09298 4.23737 34.19668 0 0 0
48 12.08806 4.19559 34.35976 0 0 0
49 12.97075 4.50331 34.14266 0 0 0
50 13.56444 4.99423 34.69148 0 0 0
51 14.28115 5.63243 34.38687 0 0 0
52 15.03464 6.02691 34.96870 0 0 0
53 15.88265 6.56057 34.87969 0 0 0
54 16.85539 6.74657 35.09880 0 0 0
55 17.50859 6.25245 35.51738 0 0 0
56 18.01092 6.41007 36.30689 0 0 0
57 18.91167 6.35155 36.57083 0 0 0
58 19.84413 6.33296 36.88214 0 0 0
59 20.69906 6.29387 37.27330 0 0 0
60 21.20984 6.66081 36.50462 0 0 0
61 21.77722 6.90454 37.24308 0 0 0
62 21.90111 6.40261 38.06230 0 0 0
63 22.05209 5.54523 37.53100 0 0 0
64 22.92678 5.32648 38.12487 0 0 0
65 23.04108 4.49288 38.64424 0 0 0
66 22.50853 4.30355 39.39898 0 0 0
67 22.34554 4.26435 40.31442 0 0 0
68 -0.06926 1.52472 29.81763 0 0 0
69 -1.04741 1.48293 29.47653 0 0 0
70 -1.89342 1.82650 29.13773 0 0 0
71 -2.72718 1.37890 28.98869 0 0 0
72 -3.59022 1.21156 29.46052 0 0 0
73 -4.40751 1.81891 29.60560 0 0 0
74 -5.26960 1.87965 30.18069 0 0 0
75 -6.29312 1.61706 30.26280 0 0 0
76 -7.05679 2.28418 30.25287 0 0 0
77 -7.99748 2.14009 30.52061 0 0 0
78 -8.81006 2.53791 30.89765 0 0 0
79 -9.69766 2.44833 31.39457 0 0 0
80 -10.28170 2.71031 32.19055 0 0 0
81 -11.03115 2.53602 32.81794 0 0 0
82 -11.83043 2.86538 33.36323 0 0 0
83 -12.54890 2.24064 33.68383 0 0 0
84 -13.45443 2.25227 34.03169 0 0 0
85 -14.35226 2.09869 34.46898 0 0 0
86 -15.06489 2.35262 35.06446 0 0 0
87 -15.81380 2.36890 35.72833 0 0 0
88 -16.70345 2.38480 36.13646 0 0 0
89 -17.62732 2.08072 35.95471 0 0 0
90 -18.59580 1.66947 35.61513 0 0 0
91 -18.94692 2.61578 35.71590 0 0 0
92 -19.89101 2.62329 35.99579 0 0 0
93 -19.48472 3.40720 36.27730 0 0 0
94 -20.09529 4.03285 36.73733 0 0 0
95 -20.93564 3.94978 37.28911 0 0 0
96 -21.55857 3.78215 37.99575 0 0 0
97 -22.27915 3.05244 38.08093 0 0 0
98 -23.08711 3.58591 37.72783 0 0 0
99 -23.78062 2.81290 37.50582 0 0 0
100 -23.90307 3.56224 36.92196 0 0 0
ITEM: TIMESTEP
2000
ITEM: NUMBER OF ATOMS
100
ITEM: BOX BOUNDS pp pp pp
-1.0000000000000000e+03 1.0000000000000000e+03
-1.0000000000000000e+03 1.0000000000000000e+03
-1.0000000000000000e+03 1.0000000000000000e+03
ITEM: ATOMS id x y z ix iy iz
1 1.28607 -1.99326 6.52226 0 0 0
2 1.18725 -1.09732 7.01027 0 0 0
3 0.49701 -1.19788 7.59181 0 0 0
4 0.83960 -1.00472 8.51197 0 0 0
5 0.93403 -1.53874 9.33049 0 0 0
6 -0.07635 -1.73146 9.32712 0 0 0
7 -0.60517 -1.86632 10.10812 0 0 0
8 -1.38204 -1.39436 10.54938 0 0 0
9 -1.34820 -2.40834 10.64875 0 0 0
10 -0.50252 -2.24552 11.10976 0 0 0
11 -1.03923 -1.85594 11.81297 0 0 0
12 -0.90747 -1.07045 12.38155 0 0 0
13 -0.40193 -0.56385 13.00109 0 0 0
14 -0.36630 0.25447 13.49392 0 0 0
15 -0.38731 -0.20546 14.43633 0 0 0
16 -0.94583 -0.29384 15.30442 0 0 0
17 -1.20153 -0.70847 16.11808 0 0 0
18 -0.93226 -1.09880 16.98572 0 0 0
19 -1.28034 -0.59457 17.73030 0 0 0
20 -1.35402 0.33661 17.93220 0 0 0
21 -1.65950 0.71807 18.85813 0 0 0
22 -1.40083 0.29008 19.74692 0 0 0
23 -0.64705 -0.04400 20.31131 0 0 0
24 -0.83255 0.38110 21.18104 0 0 0
25 -0.46721 0.80365 22.09472 0 0 0
26 -0.73878 0.58493 23.05829 0 0 0
27 -1.48455 0.88990 23.60954 0 0 0
28 -1.14378 1.61687 24.17057 0 0 0
29 -1.15662 2.07349 25.02789 0 0 0
30 -1.16849 2.40133 25.94661 0 0 0
31 -0.61204 2.65299 26.75661 0 0 0
32 -0.10618 2.75316 27.56671 0 0 0
33 -0.29244 3.26643 28.39160 0 0 0
34 0.48701 3.31943 28.92196 0 0 0
35 1.19325 3.07642 29.51168 0 0 0
36 1.34139 2.80723 30.47491 0 0 0
37 2.15195 2.69345 31.07884 0 0 0
38 3.05450 3.06656 31.05313 0 0 0
39 3.74042 3.27970 30.43560 0 0 0
40 4.63990 3.05546 30.67420 0 0 0
41 5.53843 3.36693 30.35063 0 0 0
42 6.52045 3.43946 30.31450 0 0 0
43 7.09633 4.19221 30.06786 0 0 0
44 8.09297 4.42500 30.08443 0 0 0
45 8.96119 4.76444 30.40635 0 0 0
46 9.91974 4.90269 30.55085 0 0 0
47 10.59830 5.56302 30.73796 0 0 0
48 11.50457 5.86552 30.95748 0 0 0
49 12.48205 5.76135 31.11972 0 0 0
50 12.93554 5.43645 31.86001 0 0 0
51 13.81213 5.81530 32.10333 0 0 0
52 14.63966 5.48321 32.62004 0 0 0
53 15.28998 5.47972 31.90078 0 0 0
54 15.18585 6.47575 31.62510 0 0 0
55 16.03211 6.42247 32.19909 0 0 0
56 16.97954 6.11946 32.34598 0 0 0
57 17.78492 6.19564 32.79288 0 0 0
58 18.54119 5.97782 33.47642 0 0 0
59 19.44492 5.69397 33.64697 0 0 0
60 20.00339 5.13692 34.23111 0 0 0
61 20.46687 5.23249 35.03271 0 0 0
62 20.86434 5.87557 35.58713 0 0 0
63 20.89973 6.87744 35.85074 0 0 0
64 21.24469 7.58693 36.42855 0 0 0
65 20.42728 7.10051 36.78562 0 0 0
66 20.35479 6.97833 37.70279 0 0 0
67 19.78150 6.50901 38.34053 0 0 0
68 -0.28962 3.57796 29.53627 0 0 0
69 -1.15154 3.60791 29.90685 0 0 0
70 -1.80905 3.62924 29.20654 0 0 0
71 -2.72695 3.50073 29.55940 0 0 0
72 -3.61734 3.10659 29.69875 0 0 0
73 -4.41046 2.95951 30.34648 0 0 0
74 -4.71161 3.81388 30.85077 0 0 0
75 -5.40910 3.47259 31.41789 0 0 0
76 -6.29732 3.78303 31.59339 0 0 0
77 -6.94211 3.71441 32.36601 0 0 0
78 -7.59890 3.14817 32.89812 0 0 0
79 -7.33527 3.77246 33.68266 0 0 0
80 -8.20822 3.97457 34.07403 0 0 0
81 -8.87781 4.53063 34.42208 0 0 0
82 -9.78686 4.31286 34.64154 0 0 0
83 -10.60089 4.65662 34.05213 0 0 0
84 -11.38093 5.15148 34.46761 0 0 0
85 -11.99869 4.91818 35.24503 0 0 0
86 -12.51750 5.21846 35.97240 0 0 0
87 -13.35421 5.09948 36.50959 0 0 0
88 -14.19930 4.87049 36.17942 0 0 0
89 -15.17737 4.92618 36.29370 0 0 0
90 -15.25826 3.88746 36.50128 0 0 0
91 -15.80075 3.33504 37.11063 0 0 0
92 -16.61150 3.50722 37.59005 0 0 0
93 -17.43269 3.10986 37.76285 0 0 0
94 -18.35429 3.29434 37.99061 0 0 0
95 -18.47531 3.08955 37.01698 0 0 0
96 -19.41077 3.05808 37.19595 0 0 0
97 -20.05834 3.64494 36.74237 0 0 0
98 -20.77414 2.92556 36.94444 0 0 0
99 -21.60512 2.37969 37.11279 0 0 0
100 -22.05078 1.79655 37.77569 0 0 0
ITEM: TIMESTEP
3000
ITEM: NUMBER OF ATOMS
100
ITEM: BOX BOUNDS pp pp pp
-1.0000000000000000e+03 1.0000000000000000e+03
-1.0000000000000000e+03 1.0000000000000000e+03
-1.0000000000000000e+03 1.0000000000000000e+03
ITEM: ATOMS id x y z ix iy iz
1 1.23519 -2.68183 9.43694 0 0 0
2 1.65972 -1.95812 9.93810 0 0 0
3 1.75973 -1.32598 10.69522 0 0 0
4 2.27818 -1.97109 11.26348 0 0 0
5 1.59863 -2.63661 11.42764 0 0 0
6 0.93548 -3.20484 10.98330 0 0 0
7 0.53954 -3.67927 11.76234 0 0 0
8 0.38563 -4.36814 12.42161 0 0 0
9 -0.52504 -4.00866 12.28041 0 0 0
10 -0.31818 -3.08983 12.59992 0 0 0
11 -1.25479 -2.81663 12.58494 0 0 0
12 -0.92251 -1.99182 13.04517 0 0 0
13 -1.40542 -1.05102 13.10817 0 0 0
14 -1.06865 -1.21251 13.91601 0 0 0
15 -0.62294 -0.37748 14.05780 0 0 0
16 -0.16239 -0.60769 14.80810 0 0 0
17 0.09881 -0.66943 15.72369 0 0 0
18 0.25386 0.14677 16.26760 0 0 0
19 0.19947 0.86516 16.86800 0 0 0
20 0.47676 0.95271 17.84870 0 0 0
21 0.68902 0.46094 18.70483 0 0 0
22 0.29588 0.67827 19.54100 0 0 0
23 0.31824 1.13844 20.47103 0 0 0
24 0.68212 1.77886 21.14133 0 0 0
25 1.21173 2.05336 21.91476 0 0 0
26 1.09010 2.33158 22.87250 0 0 0
27 0.60723 2.31997 23.84031 0 0 0
28 0.85624 2.01135 24.76919 0 0 0
29 1.12834 1.41190 25.45644 0 0 0
30 0.70069 1.80910 26.31468 0 0 0
31 0.05320 2.29739 26.96936 0 0 0
32 -0.04595 2.80759 27.77343 0 0 0
33 0.12044 2.90385 28.74015 0 0 0
34 -0.18076 3.63447 29.36275 0 0 0
35 0.39499 4.42137 29.73983 0 0 0
36 1.00416 5.22037 29.76241 0 0 0
37 1.48243 6.02967 29.55093 0 0 0
38 2.28732 6.49550 29.14938 0 0 0
39 3.31260 6.42560 29.28313 0 0 0
40 3.96377 5.94418 29.75103 0 0 0
41 4.80005 6.26363 30.01522 0 0 0
42 5.66975 6.11022 30.46123 0 0 0
43 6.53394 6.02687 30.16073 0 0 0
44 7.49563 6.23639 29.95121 0 0 0
45 8.40179 6.41552 29.76170 0 0 0
46 8.51320 6.10644 30.66966 0 0 0
47 9.38636 5.81602 31.03444 0 0 0
48 10.06991 5.17432 31.26494 0 0 0
49 11.00077 5.42178 31.32115 0 0 0
50 11.82202 5.59320 30.68519 0 0 0
51 12.69670 5.80786 30.22818 0 0 0
52 13.68381 5.72089 30.23369 0 0 0
53 14.58708 5.76682 30.66203 0 0 0
54 15.29464 5.12143 30.63995 0 0 0
55 15.82333 4.79068 31.35942 0 0 0
56 15.88121 4.95998 32.41515 0 0 0
57 16.45656 5.16352 33.18595 0 0 0
58 17.16004 4.54041 33.29743 0 0 0
59 18.07416 4.59368 33.59921 0 0 0
60 18.28576 3.95152 34.31754 0 0 0
61 18.51066 4.13353 35.30069 0 0 0
62 18.38855 5.11686 35.24215 0 0 0
63 17.59727 5.38427 35.82873 0 0 0
64 17.31933 6.24498 36.29617 0 0 0
65 18.08057 6.82444 36.54769 0 0 0
66 18.08461 6.26332 37.46852 0 0 0
67 18.62191 6.97846 37.70387 0 0 0
68 -1.13146 3.81999 29.56105 0 0 0
69 -1.56421 3.10470 30.16868 0 0 0
70 -1.91610 3.15943 31.04459 0 0 0
71 -2.81596 2.72117 31.23216 0 0 0
72 -3.60632 2.23541 31.52518 0 0 0
73 -4.15224 1.39017 31.51884 0 0 0
74 -5.06423 1.35074 31.02275 0 0 0
75 -5.34452 1.93568 31.75532 0 0 0
76 -4.82525 2.34182 32.50814 0 0 0
77 -5.54637 2.90581 32.94852 0 0 0
78 -6.51442 2.41363 33.05297 0 0 0
79 -7.10038 2.54741 33.89434 0 0 0
80 -8.04350 3.03916 33.87760 0 0 0
81 -9.00110 2.93839 34.24764 0 0 0
82 -9.95730 3.05685 34.02483 0 0 0
83 -10.77360 2.91998 33.47264 0 0 0
84 -11.70217 3.24760 33.76145 0 0 0
85 -12.71650 3.07239 33.52572 0 0 0
86 -13.37754 3.44829 34.20798 0 0 0
87 -13.57526 4.07599 34.96267 0 0 0
88 -12.76050 4.35845 35.52153 0 0 0
89 -13.46378 4.86610 35.85142 0 0 0
90 -14.44542 4.97600 36.26655 0 0 0
91 -14.92414 4.15817 36.18619 0 0 0
92 -15.79631 3.87976 35.84387 0 0 0
93 -16.36383 3.58387 36.61657 0 0 0
94 -16.48890 3.70744 37.59941 0 0 0
95 -17.41718 3.22494 37.37806 0 0 0
96 -18.01425 2.34738 37.27530 0 0 0
97 -18.59661 2.95168 37.87195 0 0 0
98 -18.79405 3.65239 38.49416 0 0 0
99 -18.82463 4.53582 39.00813 0 0 0
100 -18.97851 5.44531 38.89062 0 0 0
ITEM: TIMESTEP
4000
ITEM: NUMBER OF ATOMS
100
ITEM: BOX BOUNDS pp pp pp
-1.0000000000000000e+03 1.0000000000000000e+03
-1.0000000000000000e+03 1.0000000000000000e+03
-1.0000000000000000e+03 1.0000000000000000e+03
ITEM: ATOMS id x y z ix iy iz
1 0.43573 -1.68097 7.75285 0 0 0
2 -0.21402 -1.39751 8.43669 0 0 0
3 -0.60503 -2.23647 8.28258 0 0 0
4 -0.57561 -2.80332 9.06426 0 0 0
5 -0.30094 -3.44474 9.82635 0 0 0
6 0.36050 -3.18058 10.46504 0 0 0
7 0.04895 -3.37369 11.28420 0 0 0
8 0.35482 -2.86308 12.05187 0 0 0
9 0.84966 -2.88102 12.92445 0 0 0
10 1.68723 -3.35422 13.08998 0 0 0
11 2.59499 -3.05768 12.79102 0 0 0
12 2.59397 -2.24548 13.36373 0 0 0
13 2.20290 -2.04927 14.33617 0 0 0
14 1.61579 -1.38865 14.83868 0 0 0
15 2.23942 -0.94305 15.42851 0 0 0
16 1.76659 -0.35517 16.08221 0 0 0
17 0.92287 -0.24007 16.67249 0 0 0
18 0.54574 -0.20839 17.57308 0 0 0
19 1.19533 0.13019 18.19193 0 0 0
20 1.72888 0.71467 18.78854 0 0 0
21 2.16740 0.22730 19.58407 0 0 0
22 2.47177 0.19840 20.52575 0 0 0
23 1.65014 0.66029 20.77915 0 0 0
24 1.50397 1.39214 21.52021 0 0 0
25 1.84613 1.75729 22.34401 0 0 0
26 2.26536 2.54697 22.78669 0 0 0
27 1.48994 2.49005 23.45844 0 0 0
28 1.68157 2.25222 24.43124 0 0 0
29 0.74732 2.02116 24.82298 0 0 0
30 -0.10752 2.60501 25.06004 0 0 0
31 -0.97935 3.03001 25.50286 0 0 0
32 -1.36850 3.20199 26.37186 0 0 0
33 -0.85023 4.10498 26.71253 0 0 0
34 -0.35907 4.50301 27.43288 0 0 0
35 0.61989 4.32929 27.36615 0 0 0
36 0.82956 5.35218 27.47623 0 0 0
37 1.42395 6.05671 27.36197 0 0 0
38 2.24888 6.09011 27.87846 0 0 0
39 3.30559 6.00885 28.04921 0 0 0
40 4.25723 6.19027 28.19030 0 0 0
41 5.17969 5.94268 28.46609 0 0 0
42 6.09488 5.53522 28.09858 0 0 0
43 6.81960 5.37703 27.36162 0 0 0
44 7.57537 4.74953 27.57036 0 0 0
45 8.47326 4.68347 27.14202 0 0 0
46 8.90528 4.32518 27.99212 0 0 0
47 9.20690 3.93131 28.82284 0 0 0
48 9.77938 3.13162 28.76773 0 0 0
49 10.73856 3.05094 29.37288 0 0 0
50 11.15498 3.89076 29.67397 0 0 0
51 11.62700 4.04411 30.61040 0 0 0
52 12.54418 4.47225 30.75684 0 0 0
53 13.38804 4.02857 30.57538 0 0 0
54 13.79044 4.74064 31.10330 0 0 0
55 13.33694 4.17986 31.84339 0 0 0
56 14.23473 4.62895 32.27643 0 0 0
57 15.18919 4.83020 32.44252 0 0 0
58 16.00997 4.68938 32.89721 0 0 0
59 15.93434 4.70155 33.80950 0 0 0
60 16.06716 5.69717 33.68617 0 0 0
61 16.37381 5.88661 34.56801 0 0 0
62 16.25289 6.84965 34.81443 0 0 0
63 16.26983 7.84813 34.75752 0 0 0
64 16.65213 8.58046 35.20460 0 0 0
65 16.72038 9.39493 35.82063 0 0 0
66 17.34422 10.13654 35.69382 0 0 0
67 18.24601 10.24182 35.94007 0 0 0
68 -0.97069 4.57000 28.22064 0 0 0
69 -1.30471 4.34880 29.11339 0 0 0
70 -2.29422 4.17209 28.86848 0 0 0
71 -3.33835 4.01198 28.84594 0 0 0
72 -4.24228 3.90690 28.45108 0 0 0
73 -5.06519 4.40063 28.49983 0 0 0
74 -5.71166 5.11788 28.67235 0 0 0
75 -5.53670 5.49784 29.56395 0 0 0
76 -5.87985 5.17700 30.43320 0 0 0
77 -6.29102 4.39126 30.87056 0 0 0
78 -6.52889 4.42732 31.79652 0 0 0
79 -6.80131 4.73640 32.72206 0 0 0
80 -7.59429 4.21198 32.94546 0 0 0
81 -8.50284 3.93492 33.31471 0 0 0
82 -9.04752 3.55476 34.01295 0 0 0
83 -9.92449 3.13278 34.03759 0 0 0
84 -10.73139 3.44882 34.52747 0 0 0
85 -11.31449 4.20817 34.79500 0 0 0
86 -12.27160 4.36551 34.71287 0 0 0
87 -13.15319 4.38617 35.16704 0 0 0
88 -13.81645 4.78574 35.77005 0 0 0
89 -13.96774 4.04262 36.45087 0 0 0
90 -14.89025 3.90886 36.76375 0 0 0
91 -15.34090 4.57589 37.44745 0 0 0
92 -16.07516 4.47668 38.06665 0 0 0
93 -16.70689 3.96344 38.60614 0 0 0
94 -16.42857 3.04780 38.42153 0 0 0
95 -17.29291 3.21249 38.15296 0 0 0
96 -17.44305 2.48816 37.45477 0 0 0
97 -18.16939 2.36629 36.75437 0 0 0
98 -18.13198 1.42741 36.64571 0 0 0
99 -18.05726 0.82778 35.89783 0 0 0
100 -17.26782 0.26169 36.24356 0 0 0
ITEM: TIMESTEP
5000
ITEM: NUMBER OF ATOMS
100
ITEM: BOX BOUNDS pp pp pp
-1.0000000000000000e+03 1.0000000000000000e+03
-1.0000000000000000e+03 1.0000000000000000e+03
-1.0000000000000000e+03 1.0000000000000000e+03
ITEM: ATOMS id x y z ix iy iz
1 -2.06887 -0.40504 8.28919 0 0 0
2 -1.86555 -0.25705 9.31178 0 0 0
3 -0.92958 -0.47723 9.63130 0 0 0
4 -0.76211 -1.10147 10.40550 0 0 0
5 -0.36390 -1.90105 10.09927 0 0 0
6 0.57190 -1.64183 10.41677 0 0 0
7 0.97061 -1.24831 11.21617 0 0 0
8 0.20578 -0.74218 11.52640 0 0 0
9 -0.13289 -1.66384 11.91294 0 0 0
10 -0.24158 -1.96483 12.82239 0 0 0
11 -0.13868 -1.95039 13.81793 0 0 0
12 0.19816 -2.40250 14.51737 0 0 0
13 0.39634 -1.55280 14.90593 0 0 0
14 0.67068 -1.85230 15.79169 0 0 0
15 0.08967 -1.23100 16.24640 0 0 0
16 -0.26804 -0.85754 17.13492 0 0 0
17 0.28368 -0.26230 17.76911 0 0 0
18 0.24783 0.71002 17.74740 0 0 0
19 0.67928 1.03602 18.63036 0 0 0
20 1.50640 0.91677 19.17546 0 0 0
21 1.66560 1.40399 20.09808 0 0 0
22 1.61335 2.19379 20.67608 0 0 0
23 2.10629 2.96086 21.09146 0 0 0
24 1.33599 3.24523 21.57550 0 0 0
25 0.64673 3.14676 22.28187 0 0 0
26 0.17630 3.01607 23.14401 0 0 0
27 -0.17918 2.60012 24.01363 0 0 0
28 -0.77964 2.04390 24.49256 0 0 0
29 -0.84049 1.11234 24.68075 0 0 0
30 -1.20955 1.30730 25.58928 0 0 0
31 -0.60610 1.85190 26.17397 0 0 0
32 -0.81097 2.67517 26.59805 0 0 0
33 -0.90261 3.00503 25.59467 0 0 0
34 -1.23663 3.79047 25.19176 0 0 0
35 -0.31211 3.84721 24.89227 0 0 0
36 0.49412 3.82413 24.32050 0 0 0
37 1.38552 4.09515 24.48048 0 0 0
38 2.04940 4.57773 23.98753 0 0 0
39 2.92745 4.77454 24.24468 0 0 0
40 3.00925 4.38790 25.14284 0 0 0
41 4.00827 4.35917 25.08781 0 0 0
42 4.82023 3.93640 25.32436 0 0 0
43 4.87664 3.28953 26.21341 0 0 0
44 5.79968 3.34585 26.60979 0 0 0
45 6.69950 3.36522 26.89052 0 0 0
46 7.48680 3.41275 27.66053 0 0 0
47 8.37586 3.76995 27.85386 0 0 0
48 8.61473 4.58015 28.41537 0 0 0
49 9.41437 4.58291 28.91567 0 0 0
50 9.07438 4.99115 29.68280 0 0 0
51 9.25522 5.88882 30.01735 0 0 0
52 10.19872 5.80351 30.65695 0 0 0
53 10.32930 5.94888 31.65980 0 0 0
54 10.92088 5.24636 32.10300 0 0 0
55 11.86014 5.09218 32.37662 0 0 0
56 12.72726 4.73767 32.59359 0 0 0
57 13.46766 5.07405 33.14519 0 0 0
58 14.34137 5.39653 33.01191 0 0 0
59 14.57835 6.30161 33.29372 0 0 0
60 14.76445 7.25762 33.09179 0 0 0
61 14.43903 7.48218 34.03755 0 0 0
62 14.39654 7.65675 34.97505 0 0 0
63 14.75830 7.26686 35.81074 0 0 0
64 15.58201 7.25586 36.37567 0 0 0
65 15.07406 8.02246 36.78508 0 0 0
66 15.32991 8.33310 35.95261 0 0 0
67 16.11830 8.87785 36.26283 0 0 0
68 -2.18000 3.91556 25.42189 0 0 0
69 -3.07420 3.90438 25.99551 0 0 0
70 -3.29770 3.38287 26.83124 0 0 0
71 -3.86739 3.67871 27.49685 0 0 0
72 -4.56075 3.62689 26.80457 0 0 0
73 -5.16204 4.36049 26.57603 0 0 0
74 -6.20263 4.36749 26.73559 0 0 0
75 -7.00805 3.99444 27.31328 0 0 0
76 -7.35320 3.54860 28.10082 0 0 0
77 -7.70933 3.26438 28.97317 0 0 0
78 -7.86285 3.68498 29.87399 0 0 0
79 -7.73139 4.08180 30.78692 0 0 0
80 -8.69168 3.97619 30.81150 0 0 0
81 -9.34495 4.19838 31.46066 0 0 0
82 -10.11241 3.90654 32.02137 0 0 0
83 -10.59980 3.46210 32.74296 0 0 0
84 -11.41706 4.06609 33.09795 0 0 0
85 -11.94495 4.31890 33.79539 0 0 0
86 -12.49816 4.91993 34.43051 0 0 0
87 -13.30626 5.15496 34.88065 0 0 0
88 -13.80407 4.68639 35.53116 0 0 0
89 -14.37246 3.87597 35.64590 0 0 0
90 -15.39984 4.13909 35.64335 0 0 0
91 -15.22473 3.26105 35.13790 0 0 0
92 -14.53927 2.68680 35.64147 0 0 0
93 -15.13387 3.11210 36.33912 0 0 0
94 -15.67367 3.75364 36.75173 0 0 0
95 -16.61759 3.67878 36.99224 0 0 0
96 -17.05282 2.95779 36.48685 0 0 0
97 -16.49304 2.72248 37.28443 0 0 0
98 -16.93401 2.01707 37.80716 0 0 0
99 -16.09632 1.54379 37.84970 0 0 0
100 -15.32821 1.18118 38.30588 0 0 0
ITEM: TIMESTEP
6000
ITEM: NUMBER OF ATOMS
100
ITEM: BOX BOUNDS pp pp pp
-1.0000000000000000e+03 1.0000000000000000e+03
-1.0000000000000000e+03 1.0000000000000000e+03
-1.0000000000000000e+03 1.0000000000000000e+03
ITEM: ATOMS id x y z ix iy iz
1 0.43633 2.45749 13.11257 0 0 0
2 0.75365 2.42911 12.22437 0 0 0
3 0.32162 2.06694 11.44635 0 0 0
4 0.53451 1.10592 11.89469 0 0 0
5 1.12476 0.32320 11.70721 0 0 0
6 0.83584 -0.57410 11.95622 0 0 0
7 0.80538 -1.30282 12.63935 0 0 0
8 0.14647 -1.89648 13.16093 0 0 0
9 0.20431 -1.44054 13.97236 0 0 0
10 0.13964 -2.18935 14.66966 0 0 0
11 0.34833 -3.09245 15.04952 0 0 0
12 0.83211 -3.55014 15.76930 0 0 0
13 1.15502 -3.05744 16.49563 0 0 0
14 1.89850 -2.99950 17.23732 0 0 0
15 1.90891 -2.00579 17.28142 0 0 0
16 1.29260 -1.36542 17.66176 0 0 0
17 1.54668 -1.63919 18.59959 0 0 0
18 1.75248 -1.31333 19.45930 0 0 0
19 2.02913 -0.37490 19.64390 0 0 0
20 2.04955 0.08768 20.51777 0 0 0
21 1.37849 0.24262 21.15473 0 0 0
22 0.68773 0.69068 21.74335 0 0 0
23 1.32923 1.20753 22.16678 0 0 0
24 1.26589 2.05273 21.75113 0 0 0
25 0.56966 2.66034 21.42077 0 0 0
26 -0.13779 3.23235 20.98775 0 0 0
27 0.11548 4.11802 21.39285 0 0 0
28 0.77680 3.66024 22.05240 0 0 0
29 0.85652 2.82436 22.64323 0 0 0
30 0.03483 3.02096 23.17973 0 0 0
31 -0.27549 3.90782 23.35019 0 0 0
32 -0.44395 4.71590 23.79819 0 0 0
33 -0.20084 4.80641 24.73421 0 0 0
34 -0.62945 4.67458 25.58450 0 0 0
35 0.28037 4.44354 25.79918 0 0 0
36 1.25729 4.57825 25.41305 0 0 0
37 1.89628 5.18871 25.60111 0 0 0
38 1.91907 4.34730 26.20525 0 0 0
39 1.35242 4.83363 26.87959 0 0 0
40 1.40362 4.92205 27.95162 0 0 0
41 1.27636 5.42920 28.77770 0 0 0
42 2.07368 5.87852 28.38809 0 0 0
43 2.29516 5.69959 27.44298 0 0 0
44 3.18251 5.54650 27.79252 0 0 0
45 4.00748 5.92225 27.50941 0 0 0
46 4.96426 6.02786 27.15325 0 0 0
47 5.41977 5.48102 27.78559 0 0 0
48 6.15222 5.55404 28.38414 0 0 0
49 6.52004 5.99301 29.07012 0 0 0
50 7.26399 5.54696 29.47408 0 0 0
51 7.93591 6.01028 29.98407 0 0 0
52 8.56728 6.62412 30.40274 0 0 0
53 9.25898 6.66262 31.01079 0 0 0
54 10.15229 6.56452 30.67423 0 0 0
55 10.63541 7.47553 30.80499 0 0 0
56 11.54520 7.17639 31.23174 0 0 0
57 11.96825 7.39569 32.20911 0 0 0
58 12.15958 8.26531 32.39236 0 0 0
59 12.01451 9.19772 32.58970 0 0 0
60 12.79265 9.29861 33.19249 0 0 0
61 13.46685 10.05605 33.17620 0 0 0
62 14.15171 9.46506 32.88635 0 0 0
63 15.18254 9.26290 32.97682 0 0 0
64 14.92009 8.70030 33.75414 0 0 0
65 14.92273 7.94394 33.01573 0 0 0
66 15.10362 8.18349 32.10365 0 0 0
67 14.78293 7.29112 32.07810 0 0 0
68 -1.61902 4.70073 25.83870 0 0 0
69 -1.87135 3.90325 26.23512 0 0 0
70 -2.75854 3.55917 26.53928 0 0 0
71 -3.68305 3.84874 26.64905 0 0 0
72 -4.29514 4.46469 27.17387 0 0 0
73 -4.66375 4.19329 28.14905 0 0 0
74 -5.55527 4.36275 28.49484 0 0 0
75 -6.29237 4.94235 28.82488 0 0 0
76 -7.24321 5.03888 29.15276 0 0 0
77 -7.38794 5.52902 29.96148 0 0 0
78 -8.35730 5.67041 30.32740 0 0 0
79 -8.75497 5.82193 31.31684 0 0 0
80 -8.25956 5.01464 31.57903 0 0 0
81 -8.36014 4.25923 30.99428 0 0 0
82 -9.19008 3.93739 31.41704 0 0 0
83 -9.60276 4.72217 31.11413 0 0 0
84 -9.54405 4.99874 32.06546 0 0 0
85 -10.22807 4.75917 32.83200 0 0 0
86 -10.48496 4.00865 32.25833 0 0 0
87 -10.87649 3.63856 33.09541 0 0 0
88 -11.27704 2.74928 32.95856 0 0 0
89 -11.95022 2.71608 33.69350 0 0 0
90 -12.79840 3.09973 33.40711 0 0 0
91 -13.59663 2.62278 33.79118 0 0 0
92 -13.64499 2.80067 34.68506 0 0 0
93 -14.12215 2.38854 35.47179 0 0 0
94 -14.52855 1.96991 34.64986 0 0 0
95 -15.16398 1.24451 34.51075 0 0 0
96 -15.37425 0.41864 34.08696 0 0 0
97 -16.06267 -0.26914 34.16013 0 0 0
98 -16.67866 -0.68695 34.75589 0 0 0
99 -16.68026 -0.56677 35.71533 0 0 0
100 -17.48541 0.02409 35.37218 0 0 0
ITEM: TIMESTEP
7000
ITEM: NUMBER OF ATOMS
100
ITEM: BOX BOUNDS pp pp pp
-1.0000000000000000e+03 1.0000000000000000e+03
-1.0000000000000000e+03 1.0000000000000000e+03
-1.0000000000000000e+03 1.0000000000000000e+03
ITEM: ATOMS id x y z ix iy iz
1 0.50719 2.22744 10.15342 0 0 0
2 -0.16225 2.57888 10.81128 0 0 0
3 -0.05969 2.33072 11.72204 0 0 0
4 0.75979 2.28408 12.26221 0 0 0
5 1.28588 2.56490 13.05150 0 0 0
6 2.05381 2.20997 13.52000 0 0 0
7 2.82249 1.82675 13.86734 0 0 0
8 3.09979 0.87278 13.77917 0 0 0
9 2.10556 0.68939 13.52111 0 0 0
10 2.25960 -0.10884 13.04815 0 0 0
11 2.95800 -0.67063 13.40690 0 0 0
12 3.82304 -0.54131 13.93449 0 0 0
13 4.01480 -0.55958 14.86381 0 0 0
14 3.71696 -0.59012 15.73042 0 0 0
15 3.28300 -0.20292 16.49340 0 0 0
16 2.49250 -0.03485 17.06424 0 0 0
17 2.68913 -1.02854 17.12003 0 0 0
18 1.85419 -1.21505 17.50395 0 0 0
19 1.55035 -0.88750 18.37645 0 0 0
20 2.42012 -0.57306 18.75108 0 0 0
21 2.05646 -0.29842 19.65864 0 0 0
22 1.75668 0.12756 20.53045 0 0 0
23 1.72144 0.77681 21.31644 0 0 0
24 2.01163 1.73524 21.32734 0 0 0
25 1.11204 2.18310 21.41428 0 0 0
26 0.65891 2.79791 22.07118 0 0 0
27 0.42478 3.17274 22.88201 0 0 0
28 0.49367 2.81157 23.76677 0 0 0
29 0.23586 2.61882 24.72752 0 0 0
30 -0.51197 1.96759 24.81240 0 0 0
31 -1.36626 2.40530 24.49158 0 0 0
32 -1.19032 2.86967 25.30224 0 0 0
33 -0.25435 2.85888 25.70708 0 0 0
34 -0.79896 3.26292 26.33728 0 0 0
35 -0.49888 4.25219 26.62979 0 0 0
36 0.33615 4.70481 26.84286 0 0 0
37 0.58245 4.31418 27.74519 0 0 0
38 0.71149 4.87221 28.61717 0 0 0
39 1.60279 4.87609 28.94571 0 0 0
40 2.56762 5.12646 28.74818 0 0 0
41 3.48155 5.28655 28.50372 0 0 0
42 4.09022 5.58078 29.16451 0 0 0
43 4.99161 5.91497 29.32397 0 0 0
44 5.18678 6.78657 29.81609 0 0 0
45 6.09717 7.08534 30.00876 0 0 0
46 6.50892 6.36280 29.53773 0 0 0
47 7.36969 6.46586 29.05754 0 0 0
48 7.91741 5.96421 29.70646 0 0 0
49 8.73759 5.85240 30.18104 0 0 0
50 9.63580 5.94890 29.98715 0 0 0
51 9.94851 6.67107 30.57383 0 0 0
52 10.78098 6.45354 31.09896 0 0 0
53 10.48253 6.49047 32.04403 0 0 0
54 10.60951 6.62161 33.02946 0 0 0
55 11.00768 6.30758 33.91092 0 0 0
56 11.19231 7.14816 34.23867 0 0 0
57 11.37827 7.90919 34.89041 0 0 0
58 12.05866 7.95965 35.64435 0 0 0
59 12.21623 8.74892 35.14627 0 0 0
60 12.26099 9.46776 34.48499 0 0 0
61 12.54492 8.88616 33.78099 0 0 0
62 13.06855 9.01759 32.88915 0 0 0
63 13.79445 9.62907 32.79087 0 0 0
64 13.33509 10.10978 33.45460 0 0 0
65 13.66963 10.99753 33.53548 0 0 0
66 14.56514 10.63776 33.27070 0 0 0
67 14.98544 11.44815 32.88801 0 0 0
68 -1.16505 2.81079 27.12630 0 0 0
69 -1.59838 3.02602 27.98559 0 0 0
70 -2.33827 2.61209 28.49468 0 0 0
71 -3.10944 2.39523 27.94212 0 0 0
72 -3.40244 3.27704 28.29110 0 0 0
73 -4.04500 3.92087 28.02038 0 0 0
74 -4.32350 3.32027 28.66183 0 0 0
75 -4.91411 3.87796 29.19272 0 0 0
76 -5.41800 3.97444 30.05484 0 0 0
77 -6.17638 4.04946 30.67491 0 0 0
78 -6.85639 3.86992 31.32547 0 0 0
79 -7.64138 4.31022 31.76451 0 0 0
80 -8.44603 4.96373 31.74324 0 0 0
81 -8.97818 5.77719 31.88045 0 0 0
82 -9.54559 6.58930 32.19233 0 0 0
83 -10.50291 6.28196 31.99117 0 0 0
84 -10.83713 5.82558 32.84898 0 0 0
85 -11.17155 5.02216 33.37308 0 0 0
86 -12.06196 4.90868 33.72164 0 0 0
87 -12.63958 4.66774 34.45230 0 0 0
88 -13.27837 4.12477 34.93939 0 0 0
89 -14.18663 4.55331 35.21953 0 0 0
90 -14.78611 3.86076 34.94249 0 0 0
91 -14.41784 3.24901 34.31809 0 0 0
92 -14.90885 2.86056 33.65947 0 0 0
93 -15.28902 2.55854 32.75182 0 0 0
94 -15.49512 1.93222 33.53924 0 0 0
95 -16.28480 1.40319 33.71803 0 0 0
96 -16.74132 0.55335 33.74844 0 0 0
97 -17.02218 -0.21623 34.36577 0 0 0
98 -17.18182 0.17775 35.19381 0 0 0
99 -16.54155 0.29498 35.91870 0 0 0
100 -15.86722 0.13301 36.57521 0 0 0
ITEM: TIMESTEP
8000
ITEM: NUMBER OF ATOMS
100
ITEM: BOX BOUNDS pp pp pp
-1.0000000000000000e+03 1.0000000000000000e+03