bb133nuc1bl66bn3d30tot200

199 atoms
198 bonds
198 angles

1 atom types
1 bond types
1 angle types

-1000 1000 xlo xhi
-1000 1000 ylo yhi
-1000 1000 zlo zhi

Masses

1 1

Atoms

1	1	1	0.0	0.0	0.0	0	0	0
2	1	1	0.0	0.0	1.0	0	0	0
3	1	1	0.0	-0.49999999999999994	1.8660254037844388	0	0	0
4	1	1	0.0	0.0	2.7320508075688776	0	0	0
5	1	1	0.0	-0.49999999999999994	3.5980762113533165	0	0	0
6	1	1	0.0	0.0	4.464101615137755	0	0	0
7	1	1	0.0	-0.49999999999999994	5.330127018922194	0	0	0
8	1	1	0.0	0.0	6.196152422706632	0	0	0
9	1	1	0.0	-0.49999999999999994	7.06217782649107	0	0	0
10	1	1	0.0	0.0	7.928203230275509	0	0	0
11	1	1	0.0	-0.49999999999999994	8.794228634059948	0	0	0
12	1	1	0.0	0.0	9.660254037844387	0	0	0
13	1	1	0.0	-0.49999999999999994	10.526279441628827	0	0	0
14	1	1	0.0	0.0	11.392304845413266	0	0	0
15	1	1	0.0	-0.49999999999999994	12.258330249197705	0	0	0
16	1	1	0.0	0.0	13.124355652982144	0	0	0
17	1	1	0.0	-0.49999999999999994	13.990381056766584	0	0	0
18	1	1	0.0	0.0	14.856406460551023	0	0	0
19	1	1	0.0	-0.49999999999999994	15.722431864335462	0	0	0
20	1	1	0.0	0.0	16.5884572681199	0	0	0
21	1	1	0.0	-0.49999999999999994	17.454482671904337	0	0	0
22	1	1	0.0	0.0	18.320508075688775	0	0	0
23	1	1	0.0	-0.49999999999999994	19.186533479473212	0	0	0
24	1	1	0.0	0.0	20.05255888325765	0	0	0
25	1	1	0.0	-0.49999999999999994	20.918584287042087	0	0	0
26	1	1	0.0	0.0	21.784609690826525	0	0	0
27	1	1	0.0	-0.49999999999999994	22.650635094610962	0	0	0
28	1	1	0.0	0.0	23.5166604983954	0	0	0
29	1	1	0.0	-0.49999999999999994	24.382685902179837	0	0	0
30	1	1	0.0	0.0	25.248711305964274	0	0	0
31	1	1	0.0	-0.49999999999999994	26.114736709748712	0	0	0
32	1	1	0.0	0.0	26.98076211353315	0	0	0
33	1	1	0.0	-0.49999999999999994	27.846787517317587	0	0	0
34	1	1	0.0	0.0	28.712812921102024	0	0	0
35	1	1	0.0	-0.49999999999999994	29.578838324886462	0	0	0
36	1	1	0.0	0.0	30.4448637286709	0	0	0
37	1	1	0.0	-0.49999999999999994	31.310889132455337	0	0	0
38	1	1	0.0	0.0	32.17691453623978	0	0	0
39	1	1	0.0	-0.49999999999999994	33.04293994002422	0	0	0
40	1	1	0.0	0.0	33.90896534380866	0	0	0
41	1	1	0.0	-0.49999999999999994	34.7749907475931	0	0	0
42	1	1	0.0	0.0	35.64101615137754	0	0	0
43	1	1	0.0	-0.49999999999999994	36.50704155516198	0	0	0
44	1	1	0.0	0.0	37.373066958946424	0	0	0
45	1	1	0.0	-0.49999999999999994	38.239092362730865	0	0	0
46	1	1	0.0	0.0	39.105117766515306	0	0	0
47	1	1	0.0	-0.49999999999999994	39.97114317029975	0	0	0
48	1	1	0.0	0.0	40.83716857408419	0	0	0
49	1	1	0.0	-0.49999999999999994	41.70319397786863	0	0	0
50	1	1	0.0	0.0	42.56921938165307	0	0	0
51	1	1	0.0	-0.49999999999999994	43.43524478543751	0	0	0
52	1	1	0.0	0.0	44.30127018922195	0	0	0
53	1	1	0.0	-0.49999999999999994	45.16729559300639	0	0	0
54	1	1	0.0	0.0	46.033320996790835	0	0	0
55	1	1	0.0	-0.49999999999999994	46.899346400575276	0	0	0
56	1	1	0.0	0.0	47.76537180435972	0	0	0
57	1	1	0.0	-0.49999999999999994	48.63139720814416	0	0	0
58	1	1	0.0	0.0	49.4974226119286	0	0	0
59	1	1	0.0	-0.49999999999999994	50.36344801571304	0	0	0
60	1	1	0.0	0.0	51.22947341949748	0	0	0
61	1	1	0.0	-0.49999999999999994	52.09549882328192	0	0	0
62	1	1	0.0	0.0	52.96152422706636	0	0	0
63	1	1	0.0	-0.49999999999999994	53.827549630850804	0	0	0
64	1	1	0.0	0.0	54.693575034635245	0	0	0
65	1	1	0.0	-0.49999999999999994	55.559600438419686	0	0	0
66	1	1	0.0	0.0	56.42562584220413	0	0	0
67	1	1	0.0	-0.49999999999999994	57.29165124598857	0	0	0
68	1	1	-0.8061146977717636	-0.47589359634030287	57.88291935382032	0	0	0
69	1	1	-1.6122293955435256	-0.7506508922929974	58.40702575748002	0	0	0
70	1	1	-2.4183440933152873	-0.43414008041394325	58.90702575748002	0	0	0
71	1	1	-3.2244587910870495	-0.7088973763666377	59.43113216113972	0	0	0
72	1	1	-4.030573488858812	-0.3923865644875836	59.93113216113972	0	0	0
73	1	1	-4.836688186630574	-0.6671438604402782	60.45523856479942	0	0	0
74	1	1	-5.642802884402336	-0.350633048561224	60.95523856479942	0	0	0
75	1	1	-6.448917582174098	-0.6253903445139186	61.479344968459124	0	0	0
76	1	1	-7.25503227994586	-0.30887953263486445	61.979344968459124	0	0	0
77	1	1	-8.061146977717621	-0.583636828587559	62.503451372118825	0	0	0
78	1	1	-8.867261675489383	-0.2671260167085049	63.003451372118825	0	0	0
79	1	1	-9.673376373261144	-0.5418833126611995	63.527557775778526	0	0	0
80	1	1	-10.479491071032905	-0.22537250078214532	64.02755777577853	0	0	0
81	1	1	-11.285605768804666	-0.5001297967348399	64.55166417943823	0	0	0
82	1	1	-12.091720466576428	-0.18361898485578576	65.05166417943823	0	0	0
83	1	1	-12.897835164348189	-0.4583762808084803	65.57577058309793	0	0	0
84	1	1	-13.70394986211995	-0.14186546892942614	66.07577058309793	0	0	0
85	1	1	-14.510064559891712	-0.4166227648821207	66.59987698675764	0	0	0
86	1	1	-15.316179257663473	-0.10011195300306652	67.09987698675764	0	0	0
87	1	1	-16.122293955435236	-0.37486924895576107	67.62398339041734	0	0	0
88	1	1	-16.928408653206997	-0.058358437076706904	68.12398339041734	0	0	0
89	1	1	-17.73452335097876	-0.33311573302940145	68.64808979407704	0	0	0
90	1	1	-18.54063804875052	-0.016604921150347285	69.14808979407704	0	0	0
91	1	1	-19.34675274652228	-0.29136221710304183	69.67219619773674	0	0	0
92	1	1	-20.152867444294042	0.025148594776012334	70.17219619773674	0	0	0
93	1	1	-20.958982142065803	-0.2496087011766822	70.69630260139644	0	0	0
94	1	1	-21.765096839837565	0.06690211070237195	71.19630260139644	0	0	0
95	1	1	-22.571211537609326	-0.2078551852503226	71.72040900505614	0	0	0
96	1	1	-23.377326235381087	0.10865562662873157	72.22040900505614	0	0	0
97	1	1	-24.18344093315285	-0.16610166932396297	72.74451540871584	0	0	0
98	1	1	-24.98955563092461	0.1504091425550912	73.24451540871584	0	0	0
99	1	1	-25.79567032869637	-0.12434815339760336	73.76862181237554	0	0	0
100	1	1	-26.601785026468132	0.1921626584814508	74.26862181237554	0	0	0
101	1	1	-27.407899724239893	-0.08259463747124374	74.79272821603524	0	0	0
102	1	1	-28.214014422011655	0.23391617440781043	75.29272821603524	0	0	0
103	1	1	-29.020129119783416	-0.04084112154488412	75.81683461969494	0	0	0
104	1	1	-29.826243817555177	0.27566969033417005	76.31683461969494	0	0	0
105	1	1	-30.63235851532694	0.0009123943814755009	76.84094102335465	0	0	0
106	1	1	-31.4384732130987	0.31742320626052967	77.34094102335465	0	0	0
107	1	1	-32.244587910870464	0.04266591030783512	77.86504742701435	0	0	0
108	1	1	-33.050702608642226	0.3591767221868893	78.36504742701435	0	0	0
109	1	1	-33.85681730641399	0.08441942623419474	78.88915383067405	0	0	0
110	1	1	-34.66293200418575	0.4009302381132489	79.38915383067405	0	0	0
111	1	1	-35.46904670195751	0.12617294216055436	79.91326023433375	0	0	0
112	1	1	-36.27516139972927	0.4426837540396085	80.41326023433375	0	0	0
113	1	1	-37.08127609750103	0.16792645808691398	80.93736663799345	0	0	0
114	1	1	-37.88739079527279	0.48443726996596814	81.43736663799345	0	0	0
115	1	1	-38.693505493044555	0.2096799740132736	81.96147304165315	0	0	0
116	1	1	-39.499620190816316	0.5261907858923278	82.46147304165315	0	0	0
117	1	1	-40.30573488858808	0.25143348993963327	82.98557944531285	0	0	0
118	1	1	-41.11184958635984	0.5679443018186874	83.48557944531285	0	0	0
119	1	1	-41.9179642841316	0.29318700586599283	84.00968584897255	0	0	0
120	1	1	-42.72407898190336	0.6096978177450469	84.50968584897255	0	0	0
121	1	1	-43.53019367967512	0.3349405217923524	85.03379225263225	0	0	0
122	1	1	-44.33630837744688	0.6514513336714065	85.53379225263225	0	0	0
123	1	1	-45.142423075218645	0.37669403771871196	86.05789865629195	0	0	0
124	1	1	-45.948537772990406	0.6932048495977661	86.55789865629195	0	0	0
125	1	1	-46.75465247076217	0.4184475536450715	87.08200505995165	0	0	0
126	1	1	-47.56076716853393	0.7349583655241256	87.58200505995165	0	0	0
127	1	1	-48.36688186630569	0.4602010695714311	88.10611146361136	0	0	0
128	1	1	-49.17299656407745	0.7767118814504852	88.60611146361136	0	0	0
129	1	1	-49.97911126184921	0.5019545854977907	89.13021786727106	0	0	0
130	1	1	-50.78522595962097	0.8184653973768449	89.63021786727106	0	0	0
131	1	1	-51.591340657392735	0.5437081014241503	90.15432427093076	0	0	0
132	1	1	-52.397455355164496	0.8602189133032044	90.65432427093076	0	0	0
133	1	1	-53.20357005293626	0.5854616173505098	91.17843067459046	0	0	0
134	1	1	0.8061146977717686	-1.0241064036596972	57.56640854194126	0	0	0
135	1	1	1.6122293955435358	-1.615374511491439	57.542302138281556	0	0	0
136	1	1	2.418344093315303	-1.9318853233704942	58.04230213828155	0	0	0
137	1	1	3.22445879108707	-2.5231534312022363	58.01819573462185	0	0	0
138	1	1	4.030573488858837	-2.8396642430812915	58.51819573462184	0	0	0
139	1	1	4.836688186630605	-3.430932350913033	58.49408933096214	0	0	0
140	1	1	5.642802884402372	-3.7474431627920883	58.99408933096213	0	0	0
141	1	1	6.44891758217414	-4.33871127062383	58.96998292730243	0	0	0
142	1	1	7.255032279945907	-4.655222082502885	59.469982927302425	0	0	0
143	1	1	8.061146977717675	-5.246490190334627	59.445876523642724	0	0	0
144	1	1	8.867261675489441	-5.5630010022136815	59.94587652364272	0	0	0
145	1	1	9.673376373261208	-6.154269110045424	59.921770119983016	0	0	0
146	1	1	10.479491071032975	-6.470779921924478	60.42177011998301	0	0	0
147	1	1	11.285605768804741	-7.0620480297562205	60.39766371632331	0	0	0
148	1	1	12.091720466576508	-7.378558841635275	60.8976637163233	0	0	0
149	1	1	12.897835164348274	-7.969826949467017	60.8735573126636	0	0	0
150	1	1	13.70394986212004	-8.286337761346072	61.37355731266359	0	0	0
151	1	1	14.510064559891807	-8.877605869177813	61.34945090900389	0	0	0
152	1	1	15.316179257663574	-9.194116681056869	61.849450909003885	0	0	0
153	1	1	16.122293955435342	-9.78538478888861	61.825344505344184	0	0	0
154	1	1	16.92840865320711	-10.101895600767666	62.32534450534418	0	0	0
155	1	1	17.73452335097888	-10.693163708599407	62.301238101684476	0	0	0
156	1	1	18.540638048750647	-11.009674520478463	62.80123810168447	0	0	0
157	1	1	19.346752746522416	-11.600942628310204	62.77713169802477	0	0	0
158	1	1	20.152867444294184	-11.91745344018926	63.27713169802476	0	0	0
159	1	1	20.958982142065953	-12.508721548021	63.25302529436506	0	0	0
160	1	1	21.76509683983772	-12.825232359900056	63.75302529436505	0	0	0
161	1	1	22.57121153760949	-13.416500467731797	63.72891889070535	0	0	0
162	1	1	23.377326235381258	-13.733011279610853	64.22891889070534	0	0	0
163	1	1	24.183440933153026	-14.324279387442594	64.20481248704564	0	0	0
164	1	1	24.989555630924794	-14.64079019932165	64.70481248704564	0	0	0
165	1	1	25.795670328696563	-15.232058307153391	64.68070608338594	0	0	0
166	1	1	26.60178502646833	-15.548569119032447	65.18070608338594	0	0	0
167	1	1	27.4078997242401	-16.139837226864188	65.15659967972624	0	0	0
168	1	1	28.214014422011868	-16.456348038743243	65.65659967972624	0	0	0
169	1	1	29.020129119783636	-17.047616146574985	65.63249327606654	0	0	0
170	1	1	29.826243817555405	-17.36412695845404	66.13249327606654	0	0	0
171	1	1	30.632358515327173	-17.95539506628578	66.10838687240684	0	0	0
172	1	1	31.43847321309894	-18.271905878164837	66.60838687240684	0	0	0
173	1	1	32.244587910870706	-18.86317398599658	66.58428046874714	0	0	0
174	1	1	33.050702608642474	-19.179684797875634	67.08428046874714	0	0	0
175	1	1	33.85681730641424	-19.770952905707375	67.06017406508744	0	0	0
176	1	1	34.66293200418601	-20.08746371758643	67.56017406508744	0	0	0
177	1	1	35.46904670195778	-20.678731825418172	67.53606766142774	0	0	0
178	1	1	36.27516139972955	-20.995242637297228	68.03606766142774	0	0	0
179	1	1	37.081276097501316	-21.58651074512897	68.01196125776804	0	0	0
180	1	1	37.887390795273085	-21.903021557008024	68.51196125776804	0	0	0
181	1	1	38.69350549304485	-22.494289664839766	68.48785485410833	0	0	0
182	1	1	39.49962019081662	-22.81080047671882	68.98785485410833	0	0	0
183	1	1	40.30573488858839	-23.402068584550562	68.96374845044863	0	0	0
184	1	1	41.11184958636016	-23.718579396429618	69.46374845044863	0	0	0
185	1	1	41.917964284131926	-24.30984750426136	69.43964204678893	0	0	0
186	1	1	42.724078981903695	-24.626358316140415	69.93964204678893	0	0	0
187	1	1	43.53019367967546	-25.217626423972156	69.91553564312923	0	0	0
188	1	1	44.33630837744723	-25.53413723585121	70.41553564312923	0	0	0
189	1	1	45.142423075219	-26.125405343682953	70.39142923946953	0	0	0
190	1	1	45.94853777299077	-26.44191615556201	70.89142923946953	0	0	0
191	1	1	46.75465247076254	-27.03318426339375	70.86732283580983	0	0	0
192	1	1	47.560767168534305	-27.349695075272805	71.36732283580983	0	0	0
193	1	1	48.36688186630607	-27.940963183104547	71.34321643215013	0	0	0
194	1	1	49.17299656407784	-28.257473994983602	71.84321643215013	0	0	0
195	1	1	49.97911126184961	-28.848742102815343	71.81911002849043	0	0	0
196	1	1	50.78522595962138	-29.1652529146944	72.31911002849043	0	0	0
197	1	1	51.59134065739315	-29.75652102252614	72.29500362483073	0	0	0
198	1	1	52.397455355164915	-30.073031834405196	72.79500362483073	0	0	0
199	1	1	53.20357005293668	-30.664299942236937	72.77089722117103	0	0	0

Bonds

1	1	1	2
2	1	2	3
3	1	3	4
4	1	4	5
5	1	5	6
6	1	6	7
7	1	7	8
8	1	8	9
9	1	9	10
10	1	10	11
11	1	11	12
12	1	12	13
13	1	13	14
14	1	14	15
15	1	15	16
16	1	16	17
17	1	17	18
18	1	18	19
19	1	19	20
20	1	20	21
21	1	21	22
22	1	22	23
23	1	23	24
24	1	24	25
25	1	25	26
26	1	26	27
27	1	27	28
28	1	28	29
29	1	29	30
30	1	30	31
31	1	31	32
32	1	32	33
33	1	33	34
34	1	34	35
35	1	35	36
36	1	36	37
37	1	37	38
38	1	38	39
39	1	39	40
40	1	40	41
41	1	41	42
42	1	42	43
43	1	43	44
44	1	44	45
45	1	45	46
46	1	46	47
47	1	47	48
48	1	48	49
49	1	49	50
50	1	50	51
51	1	51	52
52	1	52	53
53	1	53	54
54	1	54	55
55	1	55	56
56	1	56	57
57	1	57	58
58	1	58	59
59	1	59	60
60	1	60	61
61	1	61	62
62	1	62	63
63	1	63	64
64	1	64	65
65	1	65	66
66	1	66	67
67	1	67	68
68	1	67	134
69	1	68	69
70	1	69	70
71	1	70	71
72	1	71	72
73	1	72	73
74	1	73	74
75	1	74	75
76	1	75	76
77	1	76	77
78	1	77	78
79	1	78	79
80	1	79	80
81	1	80	81
82	1	81	82
83	1	82	83
84	1	83	84
85	1	84	85
86	1	85	86
87	1	86	87
88	1	87	88
89	1	88	89
90	1	89	90
91	1	90	91
92	1	91	92
93	1	92	93
94	1	93	94
95	1	94	95
96	1	95	96
97	1	96	97
98	1	97	98
99	1	98	99
100	1	99	100
101	1	100	101
102	1	101	102
103	1	102	103
104	1	103	104
105	1	104	105
106	1	105	106
107	1	106	107
108	1	107	108
109	1	108	109
110	1	109	110
111	1	110	111
112	1	111	112
113	1	112	113
114	1	113	114
115	1	114	115
116	1	115	116
117	1	116	117
118	1	117	118
119	1	118	119
120	1	119	120
121	1	120	121
122	1	121	122
123	1	122	123
124	1	123	124
125	1	124	125
126	1	125	126
127	1	126	127
128	1	127	128
129	1	128	129
130	1	129	130
131	1	130	131
132	1	131	132
133	1	132	133
134	1	134	135
135	1	135	136
136	1	136	137
137	1	137	138
138	1	138	139
139	1	139	140
140	1	140	141
141	1	141	142
142	1	142	143
143	1	143	144
144	1	144	145
145	1	145	146
146	1	146	147
147	1	147	148
148	1	148	149
149	1	149	150
150	1	150	151
151	1	151	152
152	1	152	153
153	1	153	154
154	1	154	155
155	1	155	156
156	1	156	157
157	1	157	158
158	1	158	159
159	1	159	160
160	1	160	161
161	1	161	162
162	1	162	163
163	1	163	164
164	1	164	165
165	1	165	166
166	1	166	167
167	1	167	168
168	1	168	169
169	1	169	170
170	1	170	171
171	1	171	172
172	1	172	173
173	1	173	174
174	1	174	175
175	1	175	176
176	1	176	177
177	1	177	178
178	1	178	179
179	1	179	180
180	1	180	181
181	1	181	182
182	1	182	183
183	1	183	184
184	1	184	185
185	1	185	186
186	1	186	187
187	1	187	188
188	1	188	189
189	1	189	190
190	1	190	191
191	1	191	192
192	1	192	193
193	1	193	194
194	1	194	195
195	1	195	196
196	1	196	197
197	1	197	198
198	1	198	199

Angles

1	1	1	2	3
2	1	2	3	4
3	1	3	4	5
4	1	4	5	6
5	1	5	6	7
6	1	6	7	8
7	1	7	8	9
8	1	8	9	10
9	1	9	10	11
10	1	10	11	12
11	1	11	12	13
12	1	12	13	14
13	1	13	14	15
14	1	14	15	16
15	1	15	16	17
16	1	16	17	18
17	1	17	18	19
18	1	18	19	20
19	1	19	20	21
20	1	20	21	22
21	1	21	22	23
22	1	22	23	24
23	1	23	24	25
24	1	24	25	26
25	1	25	26	27
26	1	26	27	28
27	1	27	28	29
28	1	28	29	30
29	1	29	30	31
30	1	30	31	32
31	1	31	32	33
32	1	32	33	34
33	1	33	34	35
34	1	34	35	36
35	1	35	36	37
36	1	36	37	38
37	1	37	38	39
38	1	38	39	40
39	1	39	40	41
40	1	40	41	42
41	1	41	42	43
42	1	42	43	44
43	1	43	44	45
44	1	44	45	46
45	1	45	46	47
46	1	46	47	48
47	1	47	48	49
48	1	48	49	50
49	1	49	50	51
50	1	50	51	52
51	1	51	52	53
52	1	52	53	54
53	1	53	54	55
54	1	54	55	56
55	1	55	56	57
56	1	56	57	58
57	1	57	58	59
58	1	58	59	60
59	1	59	60	61
60	1	60	61	62
61	1	61	62	63
62	1	62	63	64
63	1	63	64	65
64	1	64	65	66
65	1	65	66	67
66	1	66	67	68
67	1	66	67	134
68	1	67	68	69
69	1	67	134	135
70	1	68	67	134
71	1	68	69	70
72	1	69	70	71
73	1	70	71	72
74	1	71	72	73
75	1	72	73	74
76	1	73	74	75
77	1	74	75	76
78	1	75	76	77
79	1	76	77	78
80	1	77	78	79
81	1	78	79	80
82	1	79	80	81
83	1	80	81	82
84	1	81	82	83
85	1	82	83	84
86	1	83	84	85
87	1	84	85	86
88	1	85	86	87
89	1	86	87	88
90	1	87	88	89
91	1	88	89	90
92	1	89	90	91
93	1	90	91	92
94	1	91	92	93
95	1	92	93	94
96	1	93	94	95
97	1	94	95	96
98	1	95	96	97
99	1	96	97	98
100	1	97	98	99
101	1	98	99	100
102	1	99	100	101
103	1	100	101	102
104	1	101	102	103
105	1	102	103	104
106	1	103	104	105
107	1	104	105	106
108	1	105	106	107
109	1	106	107	108
110	1	107	108	109
111	1	108	109	110
112	1	109	110	111
113	1	110	111	112
114	1	111	112	113
115	1	112	113	114
116	1	113	114	115
117	1	114	115	116
118	1	115	116	117
119	1	116	117	118
120	1	117	118	119
121	1	118	119	120
122	1	119	120	121
123	1	120	121	122
124	1	121	122	123
125	1	122	123	124
126	1	123	124	125
127	1	124	125	126
128	1	125	126	127
129	1	126	127	128
130	1	127	128	129
131	1	128	129	130
132	1	129	130	131
133	1	130	131	132
134	1	131	132	133
135	1	134	135	136
136	1	135	136	137
137	1	136	137	138
138	1	137	138	139
139	1	138	139	140
140	1	139	140	141
141	1	140	141	142
142	1	141	142	143
143	1	142	143	144
144	1	143	144	145
145	1	144	145	146
146	1	145	146	147
147	1	146	147	148
148	1	147	148	149
149	1	148	149	150
150	1	149	150	151
151	1	150	151	152
152	1	151	152	153
153	1	152	153	154
154	1	153	154	155
155	1	154	155	156
156	1	155	156	157
157	1	156	157	158
158	1	157	158	159
159	1	158	159	160
160	1	159	160	161
161	1	160	161	162
162	1	161	162	163
163	1	162	163	164
164	1	163	164	165
165	1	164	165	166
166	1	165	166	167
167	1	166	167	168
168	1	167	168	169
169	1	168	169	170
170	1	169	170	171
171	1	170	171	172
172	1	171	172	173
173	1	172	173	174
174	1	173	174	175
175	1	174	175	176
176	1	175	176	177
177	1	176	177	178
178	1	177	178	179
179	1	178	179	180
180	1	179	180	181
181	1	180	181	182
182	1	181	182	183
183	1	182	183	184
184	1	183	184	185
185	1	184	185	186
186	1	185	186	187
187	1	186	187	188
188	1	187	188	189
189	1	188	189	190
190	1	189	190	191
191	1	190	191	192
192	1	191	192	193
193	1	192	193	194
194	1	193	194	195
195	1	194	195	196
196	1	195	196	197
197	1	196	197	198
198	1	197	198	199
