bb266nuc1bl133bn3d30tot400

400 atoms
399 bonds
399 angles

1 atom types
1 bond types
1 angle types

-1000 1000 xlo xhi
-1000 1000 ylo yhi
-1000 1000 zlo zhi

Masses

1 1

Atoms

1	1	1	0.0	0.0	0.0	0	0	0
2	1	1	0.0	0.0	1.0	0	0	0
3	1	1	0.0	-0.49999999999999994	1.8660254037844388	0	0	0
4	1	1	0.0	0.0	2.7320508075688776	0	0	0
5	1	1	0.0	-0.49999999999999994	3.5980762113533165	0	0	0
6	1	1	0.0	0.0	4.464101615137755	0	0	0
7	1	1	0.0	-0.49999999999999994	5.330127018922194	0	0	0
8	1	1	0.0	0.0	6.196152422706632	0	0	0
9	1	1	0.0	-0.49999999999999994	7.06217782649107	0	0	0
10	1	1	0.0	0.0	7.928203230275509	0	0	0
11	1	1	0.0	-0.49999999999999994	8.794228634059948	0	0	0
12	1	1	0.0	0.0	9.660254037844387	0	0	0
13	1	1	0.0	-0.49999999999999994	10.526279441628827	0	0	0
14	1	1	0.0	0.0	11.392304845413266	0	0	0
15	1	1	0.0	-0.49999999999999994	12.258330249197705	0	0	0
16	1	1	0.0	0.0	13.124355652982144	0	0	0
17	1	1	0.0	-0.49999999999999994	13.990381056766584	0	0	0
18	1	1	0.0	0.0	14.856406460551023	0	0	0
19	1	1	0.0	-0.49999999999999994	15.722431864335462	0	0	0
20	1	1	0.0	0.0	16.5884572681199	0	0	0
21	1	1	0.0	-0.49999999999999994	17.454482671904337	0	0	0
22	1	1	0.0	0.0	18.320508075688775	0	0	0
23	1	1	0.0	-0.49999999999999994	19.186533479473212	0	0	0
24	1	1	0.0	0.0	20.05255888325765	0	0	0
25	1	1	0.0	-0.49999999999999994	20.918584287042087	0	0	0
26	1	1	0.0	0.0	21.784609690826525	0	0	0
27	1	1	0.0	-0.49999999999999994	22.650635094610962	0	0	0
28	1	1	0.0	0.0	23.5166604983954	0	0	0
29	1	1	0.0	-0.49999999999999994	24.382685902179837	0	0	0
30	1	1	0.0	0.0	25.248711305964274	0	0	0
31	1	1	0.0	-0.49999999999999994	26.114736709748712	0	0	0
32	1	1	0.0	0.0	26.98076211353315	0	0	0
33	1	1	0.0	-0.49999999999999994	27.846787517317587	0	0	0
34	1	1	0.0	0.0	28.712812921102024	0	0	0
35	1	1	0.0	-0.49999999999999994	29.578838324886462	0	0	0
36	1	1	0.0	0.0	30.4448637286709	0	0	0
37	1	1	0.0	-0.49999999999999994	31.310889132455337	0	0	0
38	1	1	0.0	0.0	32.17691453623978	0	0	0
39	1	1	0.0	-0.49999999999999994	33.04293994002422	0	0	0
40	1	1	0.0	0.0	33.90896534380866	0	0	0
41	1	1	0.0	-0.49999999999999994	34.7749907475931	0	0	0
42	1	1	0.0	0.0	35.64101615137754	0	0	0
43	1	1	0.0	-0.49999999999999994	36.50704155516198	0	0	0
44	1	1	0.0	0.0	37.373066958946424	0	0	0
45	1	1	0.0	-0.49999999999999994	38.239092362730865	0	0	0
46	1	1	0.0	0.0	39.105117766515306	0	0	0
47	1	1	0.0	-0.49999999999999994	39.97114317029975	0	0	0
48	1	1	0.0	0.0	40.83716857408419	0	0	0
49	1	1	0.0	-0.49999999999999994	41.70319397786863	0	0	0
50	1	1	0.0	0.0	42.56921938165307	0	0	0
51	1	1	0.0	-0.49999999999999994	43.43524478543751	0	0	0
52	1	1	0.0	0.0	44.30127018922195	0	0	0
53	1	1	0.0	-0.49999999999999994	45.16729559300639	0	0	0
54	1	1	0.0	0.0	46.033320996790835	0	0	0
55	1	1	0.0	-0.49999999999999994	46.899346400575276	0	0	0
56	1	1	0.0	0.0	47.76537180435972	0	0	0
57	1	1	0.0	-0.49999999999999994	48.63139720814416	0	0	0
58	1	1	0.0	0.0	49.4974226119286	0	0	0
59	1	1	0.0	-0.49999999999999994	50.36344801571304	0	0	0
60	1	1	0.0	0.0	51.22947341949748	0	0	0
61	1	1	0.0	-0.49999999999999994	52.09549882328192	0	0	0
62	1	1	0.0	0.0	52.96152422706636	0	0	0
63	1	1	0.0	-0.49999999999999994	53.827549630850804	0	0	0
64	1	1	0.0	0.0	54.693575034635245	0	0	0
65	1	1	0.0	-0.49999999999999994	55.559600438419686	0	0	0
66	1	1	0.0	0.0	56.42562584220413	0	0	0
67	1	1	0.0	-0.49999999999999994	57.29165124598857	0	0	0
68	1	1	0.0	0.0	58.15767664977301	0	0	0
69	1	1	0.0	-0.49999999999999994	59.02370205355745	0	0	0
70	1	1	0.0	0.0	59.88972745734189	0	0	0
71	1	1	0.0	-0.49999999999999994	60.75575286112633	0	0	0
72	1	1	0.0	0.0	61.62177826491077	0	0	0
73	1	1	0.0	-0.49999999999999994	62.487803668695214	0	0	0
74	1	1	0.0	0.0	63.353829072479655	0	0	0
75	1	1	0.0	-0.49999999999999994	64.21985447626409	0	0	0
76	1	1	0.0	0.0	65.08587988004852	0	0	0
77	1	1	0.0	-0.49999999999999994	65.95190528383296	0	0	0
78	1	1	0.0	0.0	66.81793068761739	0	0	0
79	1	1	0.0	-0.49999999999999994	67.68395609140183	0	0	0
80	1	1	0.0	0.0	68.54998149518626	0	0	0
81	1	1	0.0	-0.49999999999999994	69.41600689897069	0	0	0
82	1	1	0.0	0.0	70.28203230275513	0	0	0
83	1	1	0.0	-0.49999999999999994	71.14805770653956	0	0	0
84	1	1	0.0	0.0	72.014083110324	0	0	0
85	1	1	0.0	-0.49999999999999994	72.88010851410843	0	0	0
86	1	1	0.0	0.0	73.74613391789286	0	0	0
87	1	1	0.0	-0.49999999999999994	74.6121593216773	0	0	0
88	1	1	0.0	0.0	75.47818472546173	0	0	0
89	1	1	0.0	-0.49999999999999994	76.34421012924616	0	0	0
90	1	1	0.0	0.0	77.2102355330306	0	0	0
91	1	1	0.0	-0.49999999999999994	78.07626093681503	0	0	0
92	1	1	0.0	0.0	78.94228634059947	0	0	0
93	1	1	0.0	-0.49999999999999994	79.8083117443839	0	0	0
94	1	1	0.0	0.0	80.67433714816833	0	0	0
95	1	1	0.0	-0.49999999999999994	81.54036255195277	0	0	0
96	1	1	0.0	0.0	82.4063879557372	0	0	0
97	1	1	0.0	-0.49999999999999994	83.27241335952164	0	0	0
98	1	1	0.0	0.0	84.13843876330607	0	0	0
99	1	1	0.0	-0.49999999999999994	85.0044641670905	0	0	0
100	1	1	0.0	0.0	85.87048957087494	0	0	0
101	1	1	0.0	-0.49999999999999994	86.73651497465937	0	0	0
102	1	1	0.0	0.0	87.6025403784438	0	0	0
103	1	1	0.0	-0.49999999999999994	88.46856578222824	0	0	0
104	1	1	0.0	0.0	89.33459118601267	0	0	0
105	1	1	0.0	-0.49999999999999994	90.20061658979711	0	0	0
106	1	1	0.0	0.0	91.06664199358154	0	0	0
107	1	1	0.0	-0.49999999999999994	91.93266739736598	0	0	0
108	1	1	0.0	0.0	92.79869280115041	0	0	0
109	1	1	0.0	-0.49999999999999994	93.66471820493484	0	0	0
110	1	1	0.0	0.0	94.53074360871928	0	0	0
111	1	1	0.0	-0.49999999999999994	95.39676901250371	0	0	0
112	1	1	0.0	0.0	96.26279441628814	0	0	0
113	1	1	0.0	-0.49999999999999994	97.12881982007258	0	0	0
114	1	1	0.0	0.0	97.99484522385701	0	0	0
115	1	1	0.0	-0.49999999999999994	98.86087062764145	0	0	0
116	1	1	0.0	0.0	99.72689603142588	0	0	0
117	1	1	0.0	-0.49999999999999994	100.59292143521031	0	0	0
118	1	1	0.0	0.0	101.45894683899475	0	0	0
119	1	1	0.0	-0.49999999999999994	102.32497224277918	0	0	0
120	1	1	0.0	0.0	103.19099764656362	0	0	0
121	1	1	0.0	-0.49999999999999994	104.05702305034805	0	0	0
122	1	1	0.0	0.0	104.92304845413248	0	0	0
123	1	1	0.0	-0.49999999999999994	105.78907385791692	0	0	0
124	1	1	0.0	0.0	106.65509926170135	0	0	0
125	1	1	0.0	-0.49999999999999994	107.52112466548579	0	0	0
126	1	1	0.0	0.0	108.38715006927022	0	0	0
127	1	1	0.0	-0.49999999999999994	109.25317547305465	0	0	0
128	1	1	0.0	0.0	110.11920087683909	0	0	0
129	1	1	0.0	-0.49999999999999994	110.98522628062352	0	0	0
130	1	1	0.0	0.0	111.85125168440796	0	0	0
131	1	1	0.0	-0.49999999999999994	112.71727708819239	0	0	0
132	1	1	0.0	0.0	113.58330249197682	0	0	0
133	1	1	0.0	-0.49999999999999994	114.44932789576126	0	0	0
134	1	1	0.0	0.0	115.31535329954569	0	0	0
135	1	1	0.2729735483042661	-0.461768277913977	116.15930560829219	0	0	0
136	1	1	0.5459470966085334	-1.283647491622522	116.65930560829219	0	0	0
137	1	1	0.8189206449128006	-1.2615743965845738	117.62107388620616	0	0	0
138	1	1	1.0918941932170678	-2.0834536102931187	118.12107388620616	0	0	0
139	1	1	1.364867741521335	-2.0613805152551707	119.08284216412014	0	0	0
140	1	1	1.6378412898256023	-2.883259728963716	119.58284216412014	0	0	0
141	1	1	1.9108148381298695	-2.861186633925768	120.54461044203411	0	0	0
142	1	1	2.183788386434137	-3.683065847634313	121.04461044203411	0	0	0
143	1	1	2.456761934738404	-3.660992752596365	122.00637871994809	0	0	0
144	1	1	2.7297354830426714	-4.48287196630491	122.50637871994809	0	0	0
145	1	1	3.0027090313469387	-4.460798871266962	123.46814699786206	0	0	0
146	1	1	3.275682579651206	-5.282678084975507	123.96814699786206	0	0	0
147	1	1	3.548656127955473	-5.260604989937559	124.92991527577604	0	0	0
148	1	1	3.8216296762597404	-6.082484203646104	125.42991527577604	0	0	0
149	1	1	4.094603224564008	-6.0604111086081565	126.39168355369002	0	0	0
150	1	1	4.367576772868275	-6.882290322316702	126.89168355369002	0	0	0
151	1	1	4.640550321172542	-6.860217227278754	127.85345183160399	0	0	0
152	1	1	4.913523869476809	-7.682096440987299	128.353451831604	0	0	0
153	1	1	5.1864974177810765	-7.660023345949351	129.31522010951798	0	0	0
154	1	1	5.459470966085344	-8.481902559657897	129.81522010951798	0	0	0
155	1	1	5.732444514389611	-8.459829464619949	130.77698838743197	0	0	0
156	1	1	6.005418062693878	-9.281708678328494	131.27698838743197	0	0	0
157	1	1	6.2783916109981455	-9.259635583290546	132.23875666534596	0	0	0
158	1	1	6.551365159302413	-10.081514796999091	132.73875666534596	0	0	0
159	1	1	6.82433870760668	-10.059441701961143	133.70052494325995	0	0	0
160	1	1	7.097312255910947	-10.881320915669688	134.20052494325995	0	0	0
161	1	1	7.370285804215214	-10.85924782063174	135.16229322117394	0	0	0
162	1	1	7.643259352519482	-11.681127034340285	135.66229322117394	0	0	0
163	1	1	7.916232900823749	-11.659053939302337	136.62406149908793	0	0	0
164	1	1	8.189206449128015	-12.480933153010882	137.12406149908793	0	0	0
165	1	1	8.462179997432283	-12.458860057972934	138.08582977700192	0	0	0
166	1	1	8.735153545736551	-13.28073927168148	138.58582977700192	0	0	0
167	1	1	9.00812709404082	-13.258666176643532	139.5475980549159	0	0	0
168	1	1	9.281100642345088	-14.080545390352077	140.0475980549159	0	0	0
169	1	1	9.554074190649356	-14.058472295314129	141.0093663328299	0	0	0
170	1	1	9.827047738953624	-14.880351509022674	141.5093663328299	0	0	0
171	1	1	10.100021287257892	-14.858278413984726	142.4711346107439	0	0	0
172	1	1	10.37299483556216	-15.680157627693271	142.9711346107439	0	0	0
173	1	1	10.645968383866428	-15.658084532655323	143.93290288865788	0	0	0
174	1	1	10.918941932170696	-16.479963746363868	144.43290288865788	0	0	0
175	1	1	11.191915480474965	-16.45789065132592	145.39467116657187	0	0	0
176	1	1	11.464889028779233	-17.279769865034464	145.89467116657187	0	0	0
177	1	1	11.7378625770835	-17.257696769996514	146.85643944448586	0	0	0
178	1	1	12.010836125387769	-18.07957598370506	147.35643944448586	0	0	0
179	1	1	12.283809673692037	-18.05750288866711	148.31820772239985	0	0	0
180	1	1	12.556783221996305	-18.879382102375654	148.81820772239985	0	0	0
181	1	1	12.829756770300573	-18.857309007337705	149.77997600031384	0	0	0
182	1	1	13.102730318604841	-19.67918822104625	150.27997600031384	0	0	0
183	1	1	13.37570386690911	-19.6571151260083	151.24174427822783	0	0	0
184	1	1	13.648677415213378	-20.478994339716845	151.74174427822783	0	0	0
185	1	1	13.921650963517646	-20.456921244678895	152.70351255614182	0	0	0
186	1	1	14.194624511821914	-21.27880045838744	153.20351255614182	0	0	0
187	1	1	14.467598060126182	-21.25672736334949	154.1652808340558	0	0	0
188	1	1	14.74057160843045	-22.078606577058036	154.6652808340558	0	0	0
189	1	1	15.013545156734718	-22.056533482020086	155.6270491119698	0	0	0
190	1	1	15.286518705038986	-22.87841269572863	156.1270491119698	0	0	0
191	1	1	15.559492253343254	-22.85633960069068	157.0888173898838	0	0	0
192	1	1	15.832465801647523	-23.678218814399226	157.5888173898838	0	0	0
193	1	1	16.10543934995179	-23.656145719361277	158.55058566779778	0	0	0
194	1	1	16.37841289825606	-24.478024933069822	159.05058566779778	0	0	0
195	1	1	16.651386446560327	-24.455951838031872	160.01235394571177	0	0	0
196	1	1	16.924359994864595	-25.277831051740417	160.51235394571177	0	0	0
197	1	1	17.197333543168863	-25.255757956702467	161.47412222362576	0	0	0
198	1	1	17.47030709147313	-26.077637170411013	161.97412222362576	0	0	0
199	1	1	17.7432806397774	-26.055564075373063	162.93589050153975	0	0	0
200	1	1	18.016254188081668	-26.877443289081608	163.43589050153975	0	0	0
201	1	1	18.289227736385936	-26.855370194043658	164.39765877945374	0	0	0
202	1	1	18.562201284690204	-27.677249407752203	164.89765877945374	0	0	0
203	1	1	18.835174832994472	-27.655176312714254	165.85942705736772	0	0	0
204	1	1	19.10814838129874	-28.4770555264228	166.35942705736772	0	0	0
205	1	1	19.381121929603008	-28.45498243138485	167.32119533528171	0	0	0
206	1	1	19.654095477907276	-29.276861645093394	167.82119533528171	0	0	0
207	1	1	19.927069026211544	-29.254788550055444	168.7829636131957	0	0	0
208	1	1	20.200042574515813	-30.07666776376399	169.2829636131957	0	0	0
209	1	1	20.47301612282008	-30.05459466872604	170.2447318911097	0	0	0
210	1	1	20.74598967112435	-30.876473882434585	170.7447318911097	0	0	0
211	1	1	21.018963219428617	-30.854400787396635	171.70650016902368	0	0	0
212	1	1	21.291936767732885	-31.67628000110518	172.20650016902368	0	0	0
213	1	1	21.564910316037153	-31.65420690606723	173.16826844693767	0	0	0
214	1	1	21.83788386434142	-32.47608611977577	173.66826844693767	0	0	0
215	1	1	22.11085741264569	-32.454013024737826	174.63003672485166	0	0	0
216	1	1	22.383830960949958	-33.275892238446374	175.13003672485166	0	0	0
217	1	1	22.656804509254226	-33.25381914340843	176.09180500276565	0	0	0
218	1	1	22.929778057558494	-34.07569835711698	176.59180500276565	0	0	0
219	1	1	23.202751605862762	-34.05362526207903	177.55357328067964	0	0	0
220	1	1	23.47572515416703	-34.87550447578758	178.05357328067964	0	0	0
221	1	1	23.748698702471298	-34.85343138074963	179.01534155859363	0	0	0
222	1	1	24.021672250775566	-35.67531059445818	179.51534155859363	0	0	0
223	1	1	24.294645799079834	-35.653237499420236	180.47710983650762	0	0	0
224	1	1	24.567619347384102	-36.475116713128784	180.97710983650762	0	0	0
225	1	1	24.84059289568837	-36.45304361809084	181.9388781144216	0	0	0
226	1	1	25.11356644399264	-37.27492283179939	182.4388781144216	0	0	0
227	1	1	25.386539992296907	-37.25284973676144	183.4006463923356	0	0	0
228	1	1	25.659513540601175	-38.07472895046999	183.9006463923356	0	0	0
229	1	1	25.932487088905443	-38.05265585543204	184.8624146702496	0	0	0
230	1	1	26.20546063720971	-38.87453506914059	185.3624146702496	0	0	0
231	1	1	26.47843418551398	-38.852461974102646	186.32418294816358	0	0	0
232	1	1	26.751407733818247	-39.674341187811194	186.82418294816358	0	0	0
233	1	1	27.024381282122516	-39.65226809277325	187.78595122607757	0	0	0
234	1	1	27.297354830426784	-40.4741473064818	188.28595122607757	0	0	0
235	1	1	27.570328378731052	-40.45207421144385	189.24771950399156	0	0	0
236	1	1	27.84330192703532	-41.2739534251524	189.74771950399156	0	0	0
237	1	1	28.116275475339588	-41.25188033011445	190.70948778190555	0	0	0
238	1	1	28.389249023643856	-42.073759543823	191.20948778190555	0	0	0
239	1	1	28.662222571948124	-42.051686448785055	192.17125605981954	0	0	0
240	1	1	28.935196120252392	-42.873565662493604	192.67125605981954	0	0	0
241	1	1	29.20816966855666	-42.85149256745566	193.63302433773353	0	0	0
242	1	1	29.48114321686093	-43.67337178116421	194.13302433773353	0	0	0
243	1	1	29.754116765165197	-43.65129868612626	195.09479261564752	0	0	0
244	1	1	30.027090313469465	-44.47317789983481	195.59479261564752	0	0	0
245	1	1	30.300063861773733	-44.45110480479686	196.5565608935615	0	0	0
246	1	1	30.573037410078	-45.27298401850541	197.0565608935615	0	0	0
247	1	1	30.84601095838227	-45.250910923467465	198.0183291714755	0	0	0
248	1	1	31.118984506686537	-46.072790137176014	198.5183291714755	0	0	0
249	1	1	31.391958054990805	-46.05071704213807	199.4800974493895	0	0	0
250	1	1	31.664931603295074	-46.87259625584662	199.9800974493895	0	0	0
251	1	1	31.93790515159934	-46.85052316080867	200.94186572730348	0	0	0
252	1	1	32.21087869990361	-47.67240237451722	201.44186572730348	0	0	0
253	1	1	32.483852248207874	-47.65032927947927	202.40363400521747	0	0	0
254	1	1	32.75682579651214	-48.47220849318782	202.90363400521747	0	0	0
255	1	1	33.029799344816404	-48.450135398149875	203.86540228313146	0	0	0
256	1	1	33.30277289312067	-49.272014611858424	204.36540228313146	0	0	0
257	1	1	33.57574644142493	-49.24994151682048	205.32717056104545	0	0	0
258	1	1	33.8487199897292	-50.071820730529026	205.82717056104545	0	0	0
259	1	1	34.12169353803346	-50.04974763549108	206.78893883895944	0	0	0
260	1	1	34.394667086337726	-50.87162684919963	207.28893883895944	0	0	0
261	1	1	34.66764063464199	-50.84955375416168	208.25070711687343	0	0	0
262	1	1	34.940614182946256	-51.67143296787023	208.75070711687343	0	0	0
263	1	1	35.21358773125052	-51.649359872832285	209.71247539478742	0	0	0
264	1	1	35.486561279554785	-52.471239086540834	210.21247539478742	0	0	0
265	1	1	35.75953482785905	-52.44916599150289	211.1742436727014	0	0	0
266	1	1	36.032508376163314	-53.271045205211436	211.6742436727014	0	0	0
267	1	1	36.30548192446758	-53.24897211017349	212.6360119506154	0	0	0
268	1	1	-0.2729735483042604	0.9617682779139785	115.33742639458363	0	0	0
269	1	1	-0.5459470966085218	1.7836474916225273	115.83742639458363	0	0	0
270	1	1	-0.8189206449127833	2.62759980036902	115.37565811666964	0	0	0
271	1	1	-1.0918941932170447	3.4494790140775686	115.87565811666964	0	0	0
272	1	1	-1.3648677415213062	4.293431322824061	115.41388983875565	0	0	0
273	1	1	-1.6378412898255676	5.1153105365326095	115.91388983875565	0	0	0
274	1	1	-1.910814838129829	5.959262845279102	115.45212156084166	0	0	0
275	1	1	-2.183788386434091	6.78114205898765	115.95212156084166	0	0	0
276	1	1	-2.4567619347383522	7.6250943677341425	115.49035328292767	0	0	0
277	1	1	-2.7297354830426137	8.446973581442691	115.99035328292767	0	0	0
278	1	1	-3.002709031346875	9.290925890189184	115.52858500501368	0	0	0
279	1	1	-3.2756825796511366	10.112805103897733	116.02858500501368	0	0	0
280	1	1	-3.548656127955398	10.956757412644226	115.56681672709969	0	0	0
281	1	1	-3.8216296762596595	11.778636626352775	116.06681672709969	0	0	0
282	1	1	-4.0946032245639215	12.622588935099268	115.6050484491857	0	0	0
283	1	1	-4.367576772868183	13.444468148807816	116.1050484491857	0	0	0
284	1	1	-4.640550321172445	14.28842045755431	115.64328017127171	0	0	0
285	1	1	-4.913523869476707	15.110299671262858	116.14328017127171	0	0	0
286	1	1	-5.186497417780969	15.954251980009351	115.68151189335772	0	0	0
287	1	1	-5.459470966085231	16.7761311937179	116.18151189335772	0	0	0
288	1	1	-5.732444514389493	17.620083502464393	115.71974361544373	0	0	0
289	1	1	-6.005418062693755	18.44196271617294	116.21974361544373	0	0	0
290	1	1	-6.278391610998017	19.285915024919433	115.75797533752974	0	0	0
291	1	1	-6.551365159302279	20.10779423862798	116.25797533752974	0	0	0
292	1	1	-6.8243387076065405	20.951746547374473	115.79620705961575	0	0	0
293	1	1	-7.097312255910802	21.77362576108302	116.29620705961575	0	0	0
294	1	1	-7.370285804215064	22.617578069829513	115.83443878170176	0	0	0
295	1	1	-7.643259352519326	23.43945728353806	116.33443878170176	0	0	0
296	1	1	-7.916232900823588	24.283409592284553	115.87267050378777	0	0	0
297	1	1	-8.18920644912785	25.1052888059931	116.37267050378777	0	0	0
298	1	1	-8.462179997432111	25.949241114739593	115.91090222587378	0	0	0
299	1	1	-8.735153545736372	26.77112032844814	116.41090222587378	0	0	0
300	1	1	-9.008127094040633	27.615072637194633	115.9491339479598	0	0	0
301	1	1	-9.281100642344894	28.43695185090318	116.4491339479598	0	0	0
302	1	1	-9.554074190649155	29.280904159649673	115.9873656700458	0	0	0
303	1	1	-9.827047738953416	30.10278337335822	116.4873656700458	0	0	0
304	1	1	-10.100021287257677	30.946735682104713	116.02559739213181	0	0	0
305	1	1	-10.372994835561938	31.76861489581326	116.52559739213181	0	0	0
306	1	1	-10.6459683838662	32.61256720455975	116.06382911421782	0	0	0
307	1	1	-10.91894193217046	33.4344464182683	116.56382911421782	0	0	0
308	1	1	-11.191915480474721	34.278398727014796	116.10206083630383	0	0	0
309	1	1	-11.464889028778982	35.100277940723345	116.60206083630383	0	0	0
310	1	1	-11.737862577083243	35.94423024946984	116.14029255838985	0	0	0
311	1	1	-12.010836125387504	36.76610946317839	116.64029255838985	0	0	0
312	1	1	-12.283809673691765	37.61006177192488	116.17852428047586	0	0	0
313	1	1	-12.556783221996026	38.43194098563343	116.67852428047586	0	0	0
314	1	1	-12.829756770300287	39.27589329437993	116.21675600256187	0	0	0
315	1	1	-13.102730318604548	40.097772508088475	116.71675600256187	0	0	0
316	1	1	-13.37570386690881	40.94172481683497	116.25498772464788	0	0	0
317	1	1	-13.64867741521307	41.76360403054352	116.75498772464788	0	0	0
318	1	1	-13.921650963517331	42.607556339290014	116.29321944673389	0	0	0
319	1	1	-14.194624511821592	43.42943555299856	116.79321944673389	0	0	0
320	1	1	-14.467598060125853	44.27338786174506	116.3314511688199	0	0	0
321	1	1	-14.740571608430114	45.095267075453606	116.8314511688199	0	0	0
322	1	1	-15.013545156734375	45.9392193842001	116.3696828909059	0	0	0
323	1	1	-15.286518705038636	46.76109859790865	116.8696828909059	0	0	0
324	1	1	-15.559492253342897	47.605050906655144	116.40791461299192	0	0	0
325	1	1	-15.832465801647158	48.42693012036369	116.90791461299192	0	0	0
326	1	1	-16.10543934995142	49.27088242911019	116.44614633507793	0	0	0
327	1	1	-16.378412898255682	50.092761642818736	116.94614633507793	0	0	0
328	1	1	-16.651386446559943	50.93671395156523	116.48437805716394	0	0	0
329	1	1	-16.924359994864204	51.75859316527378	116.98437805716394	0	0	0
330	1	1	-17.197333543168465	52.602545474020275	116.52260977924995	0	0	0
331	1	1	-17.470307091472726	53.42442468772882	117.02260977924995	0	0	0
332	1	1	-17.743280639776987	54.26837699647532	116.56084150133596	0	0	0
333	1	1	-18.01625418808125	55.09025621018387	117.06084150133596	0	0	0
334	1	1	-18.28922773638551	55.93420851893036	116.59907322342197	0	0	0
335	1	1	-18.56220128468977	56.75608773263891	117.09907322342197	0	0	0
336	1	1	-18.83517483299403	57.600040041385405	116.63730494550798	0	0	0
337	1	1	-19.108148381298292	58.421919255093954	117.13730494550798	0	0	0
338	1	1	-19.381121929602553	59.26587156384045	116.67553666759399	0	0	0
339	1	1	-19.654095477906814	60.087750777549	117.17553666759399	0	0	0
340	1	1	-19.927069026211075	60.93170308629549	116.71376838968	0	0	0
341	1	1	-20.200042574515336	61.75358230000404	117.21376838968	0	0	0
342	1	1	-20.473016122819597	62.597534608750536	116.75200011176601	0	0	0
343	1	1	-20.74598967112386	63.419413822459084	117.25200011176601	0	0	0
344	1	1	-21.01896321942812	64.26336613120557	116.79023183385202	0	0	0
345	1	1	-21.29193676773238	65.08524534491413	117.29023183385202	0	0	0
346	1	1	-21.56491031603664	65.92919765366062	116.82846355593803	0	0	0
347	1	1	-21.837883864340903	66.75107686736918	117.32846355593803	0	0	0
348	1	1	-22.110857412645164	67.59502917611567	116.86669527802404	0	0	0
349	1	1	-22.383830960949425	68.41690838982423	117.36669527802404	0	0	0
350	1	1	-22.656804509253686	69.26086069857072	116.90492700011005	0	0	0
351	1	1	-22.929778057557947	70.08273991227928	117.40492700011005	0	0	0
352	1	1	-23.202751605862208	70.92669222102577	116.94315872219606	0	0	0
353	1	1	-23.47572515416647	71.74857143473433	117.44315872219606	0	0	0
354	1	1	-23.74869870247073	72.59252374348083	116.98139044428207	0	0	0
355	1	1	-24.02167225077499	73.41440295718938	117.48139044428207	0	0	0
356	1	1	-24.29464579907925	74.25835526593588	117.01962216636808	0	0	0
357	1	1	-24.567619347383513	75.08023447964443	117.51962216636808	0	0	0
358	1	1	-24.840592895687774	75.92418678839093	117.05785388845409	0	0	0
359	1	1	-25.113566443992035	76.74606600209948	117.55785388845409	0	0	0
360	1	1	-25.386539992296296	77.59001831084598	117.0960856105401	0	0	0
361	1	1	-25.659513540600557	78.41189752455453	117.5960856105401	0	0	0
362	1	1	-25.932487088904818	79.25584983330103	117.13431733262611	0	0	0
363	1	1	-26.20546063720908	80.07772904700958	117.63431733262611	0	0	0
364	1	1	-26.47843418551334	80.92168135575608	117.17254905471212	0	0	0
365	1	1	-26.7514077338176	81.74356056946463	117.67254905471212	0	0	0
366	1	1	-27.024381282121862	82.58751287821113	117.21078077679813	0	0	0
367	1	1	-27.297354830426123	83.40939209191968	117.71078077679813	0	0	0
368	1	1	-27.570328378730384	84.25334440066618	117.24901249888414	0	0	0
369	1	1	-27.843301927034645	85.07522361437474	117.74901249888414	0	0	0
370	1	1	-28.116275475338906	85.91917592312123	117.28724422097015	0	0	0
371	1	1	-28.389249023643167	86.74105513682979	117.78724422097015	0	0	0
372	1	1	-28.662222571947428	87.58500744557628	117.32547594305616	0	0	0
373	1	1	-28.93519612025169	88.40688665928484	117.82547594305616	0	0	0
374	1	1	-29.20816966855595	89.25083896803133	117.36370766514217	0	0	0
375	1	1	-29.48114321686021	90.07271818173989	117.86370766514217	0	0	0
376	1	1	-29.754116765164472	90.91667049048638	117.40193938722818	0	0	0
377	1	1	-30.027090313468733	91.73854970419494	117.90193938722818	0	0	0
378	1	1	-30.300063861772994	92.58250201294143	117.44017110931419	0	0	0
379	1	1	-30.573037410077255	93.40438122664999	117.94017110931419	0	0	0
380	1	1	-30.846010958381516	94.24833353539648	117.4784028314002	0	0	0
381	1	1	-31.118984506685777	95.07021274910504	117.9784028314002	0	0	0
382	1	1	-31.391958054990038	95.91416505785153	117.51663455348621	0	0	0
383	1	1	-31.6649316032943	96.73604427156009	118.01663455348621	0	0	0
384	1	1	-31.93790515159856	97.57999658030658	117.55486627557222	0	0	0
385	1	1	-32.21087869990282	98.40187579401514	118.05486627557222	0	0	0
386	1	1	-32.483852248207086	99.24582810276164	117.59309799765823	0	0	0
387	1	1	-32.75682579651135	100.06770731647019	118.09309799765823	0	0	0
388	1	1	-33.029799344815615	100.91165962521669	117.63132971974424	0	0	0
389	1	1	-33.30277289311988	101.73353883892524	118.13132971974424	0	0	0
390	1	1	-33.575746441424144	102.57749114767174	117.66956144183025	0	0	0
391	1	1	-33.84871998972841	103.39937036138029	118.16956144183025	0	0	0
392	1	1	-34.12169353803267	104.24332267012679	117.70779316391626	0	0	0
393	1	1	-34.39466708633694	105.06520188383534	118.20779316391626	0	0	0
394	1	1	-34.6676406346412	105.90915419258184	117.74602488600227	0	0	0
395	1	1	-34.94061418294547	106.7310334062904	118.24602488600227	0	0	0
396	1	1	-35.21358773124973	107.57498571503689	117.78425660808828	0	0	0
397	1	1	-35.486561279553996	108.39686492874544	118.28425660808828	0	0	0
398	1	1	-35.75953482785826	109.24081723749194	117.8224883301743	0	0	0
399	1	1	-36.032508376162525	110.0626964512005	118.3224883301743	0	0	0
400	1	1	-36.30548192446679	110.90664875994699	117.8607200522603	0	0	0

Bonds

1	1	1	2
2	1	2	3
3	1	3	4
4	1	4	5
5	1	5	6
6	1	6	7
7	1	7	8
8	1	8	9
9	1	9	10
10	1	10	11
11	1	11	12
12	1	12	13
13	1	13	14
14	1	14	15
15	1	15	16
16	1	16	17
17	1	17	18
18	1	18	19
19	1	19	20
20	1	20	21
21	1	21	22
22	1	22	23
23	1	23	24
24	1	24	25
25	1	25	26
26	1	26	27
27	1	27	28
28	1	28	29
29	1	29	30
30	1	30	31
31	1	31	32
32	1	32	33
33	1	33	34
34	1	34	35
35	1	35	36
36	1	36	37
37	1	37	38
38	1	38	39
39	1	39	40
40	1	40	41
41	1	41	42
42	1	42	43
43	1	43	44
44	1	44	45
45	1	45	46
46	1	46	47
47	1	47	48
48	1	48	49
49	1	49	50
50	1	50	51
51	1	51	52
52	1	52	53
53	1	53	54
54	1	54	55
55	1	55	56
56	1	56	57
57	1	57	58
58	1	58	59
59	1	59	60
60	1	60	61
61	1	61	62
62	1	62	63
63	1	63	64
64	1	64	65
65	1	65	66
66	1	66	67
67	1	67	68
68	1	68	69
69	1	69	70
70	1	70	71
71	1	71	72
72	1	72	73
73	1	73	74
74	1	74	75
75	1	75	76
76	1	76	77
77	1	77	78
78	1	78	79
79	1	79	80
80	1	80	81
81	1	81	82
82	1	82	83
83	1	83	84
84	1	84	85
85	1	85	86
86	1	86	87
87	1	87	88
88	1	88	89
89	1	89	90
90	1	90	91
91	1	91	92
92	1	92	93
93	1	93	94
94	1	94	95
95	1	95	96
96	1	96	97
97	1	97	98
98	1	98	99
99	1	99	100
100	1	100	101
101	1	101	102
102	1	102	103
103	1	103	104
104	1	104	105
105	1	105	106
106	1	106	107
107	1	107	108
108	1	108	109
109	1	109	110
110	1	110	111
111	1	111	112
112	1	112	113
113	1	113	114
114	1	114	115
115	1	115	116
116	1	116	117
117	1	117	118
118	1	118	119
119	1	119	120
120	1	120	121
121	1	121	122
122	1	122	123
123	1	123	124
124	1	124	125
125	1	125	126
126	1	126	127
127	1	127	128
128	1	128	129
129	1	129	130
130	1	130	131
131	1	131	132
132	1	132	133
133	1	133	134
134	1	134	135
135	1	134	268
136	1	135	136
137	1	136	137
138	1	137	138
139	1	138	139
140	1	139	140
141	1	140	141
142	1	141	142
143	1	142	143
144	1	143	144
145	1	144	145
146	1	145	146
147	1	146	147
148	1	147	148
149	1	148	149
150	1	149	150
151	1	150	151
152	1	151	152
153	1	152	153
154	1	153	154
155	1	154	155
156	1	155	156
157	1	156	157
158	1	157	158
159	1	158	159
160	1	159	160
161	1	160	161
162	1	161	162
163	1	162	163
164	1	163	164
165	1	164	165
166	1	165	166
167	1	166	167
168	1	167	168
169	1	168	169
170	1	169	170
171	1	170	171
172	1	171	172
173	1	172	173
174	1	173	174
175	1	174	175
176	1	175	176
177	1	176	177
178	1	177	178
179	1	178	179
180	1	179	180
181	1	180	181
182	1	181	182
183	1	182	183
184	1	183	184
185	1	184	185
186	1	185	186
187	1	186	187
188	1	187	188
189	1	188	189
190	1	189	190
191	1	190	191
192	1	191	192
193	1	192	193
194	1	193	194
195	1	194	195
196	1	195	196
197	1	196	197
198	1	197	198
199	1	198	199
200	1	199	200
201	1	200	201
202	1	201	202
203	1	202	203
204	1	203	204
205	1	204	205
206	1	205	206
207	1	206	207
208	1	207	208
209	1	208	209
210	1	209	210
211	1	210	211
212	1	211	212
213	1	212	213
214	1	213	214
215	1	214	215
216	1	215	216
217	1	216	217
218	1	217	218
219	1	218	219
220	1	219	220
221	1	220	221
222	1	221	222
223	1	222	223
224	1	223	224
225	1	224	225
226	1	225	226
227	1	226	227
228	1	227	228
229	1	228	229
230	1	229	230
231	1	230	231
232	1	231	232
233	1	232	233
234	1	233	234
235	1	234	235
236	1	235	236
237	1	236	237
238	1	237	238
239	1	238	239
240	1	239	240
241	1	240	241
242	1	241	242
243	1	242	243
244	1	243	244
245	1	244	245
246	1	245	246
247	1	246	247
248	1	247	248
249	1	248	249
250	1	249	250
251	1	250	251
252	1	251	252
253	1	252	253
254	1	253	254
255	1	254	255
256	1	255	256
257	1	256	257
258	1	257	258
259	1	258	259
260	1	259	260
261	1	260	261
262	1	261	262
263	1	262	263
264	1	263	264
265	1	264	265
266	1	265	266
267	1	266	267
268	1	268	269
269	1	269	270
270	1	270	271
271	1	271	272
272	1	272	273
273	1	273	274
274	1	274	275
275	1	275	276
276	1	276	277
277	1	277	278
278	1	278	279
279	1	279	280
280	1	280	281
281	1	281	282
282	1	282	283
283	1	283	284
284	1	284	285
285	1	285	286
286	1	286	287
287	1	287	288
288	1	288	289
289	1	289	290
290	1	290	291
291	1	291	292
292	1	292	293
293	1	293	294
294	1	294	295
295	1	295	296
296	1	296	297
297	1	297	298
298	1	298	299
299	1	299	300
300	1	300	301
301	1	301	302
302	1	302	303
303	1	303	304
304	1	304	305
305	1	305	306
306	1	306	307
307	1	307	308
308	1	308	309
309	1	309	310
310	1	310	311
311	1	311	312
312	1	312	313
313	1	313	314
314	1	314	315
315	1	315	316
316	1	316	317
317	1	317	318
318	1	318	319
319	1	319	320
320	1	320	321
321	1	321	322
322	1	322	323
323	1	323	324
324	1	324	325
325	1	325	326
326	1	326	327
327	1	327	328
328	1	328	329
329	1	329	330
330	1	330	331
331	1	331	332
332	1	332	333
333	1	333	334
334	1	334	335
335	1	335	336
336	1	336	337
337	1	337	338
338	1	338	339
339	1	339	340
340	1	340	341
341	1	341	342
342	1	342	343
343	1	343	344
344	1	344	345
345	1	345	346
346	1	346	347
347	1	347	348
348	1	348	349
349	1	349	350
350	1	350	351
351	1	351	352
352	1	352	353
353	1	353	354
354	1	354	355