bb466nuc1bl233bn3d30tot700

700 atoms
699 bonds
699 angles

1 atom types
1 bond types
1 angle types

-1000 1000 xlo xhi
-1000 1000 ylo yhi
-1000 1000 zlo zhi

Masses

1 1

Atoms

1	1	1	0.0	0.0	0.0	0	0	0
2	1	1	0.0	0.0	1.0	0	0	0
3	1	1	0.0	-0.49999999999999994	1.8660254037844388	0	0	0
4	1	1	0.0	0.0	2.7320508075688776	0	0	0
5	1	1	0.0	-0.49999999999999994	3.5980762113533165	0	0	0
6	1	1	0.0	0.0	4.464101615137755	0	0	0
7	1	1	0.0	-0.49999999999999994	5.330127018922194	0	0	0
8	1	1	0.0	0.0	6.196152422706632	0	0	0
9	1	1	0.0	-0.49999999999999994	7.06217782649107	0	0	0
10	1	1	0.0	0.0	7.928203230275509	0	0	0
11	1	1	0.0	-0.49999999999999994	8.794228634059948	0	0	0
12	1	1	0.0	0.0	9.660254037844387	0	0	0
13	1	1	0.0	-0.49999999999999994	10.526279441628827	0	0	0
14	1	1	0.0	0.0	11.392304845413266	0	0	0
15	1	1	0.0	-0.49999999999999994	12.258330249197705	0	0	0
16	1	1	0.0	0.0	13.124355652982144	0	0	0
17	1	1	0.0	-0.49999999999999994	13.990381056766584	0	0	0
18	1	1	0.0	0.0	14.856406460551023	0	0	0
19	1	1	0.0	-0.49999999999999994	15.722431864335462	0	0	0
20	1	1	0.0	0.0	16.5884572681199	0	0	0
21	1	1	0.0	-0.49999999999999994	17.454482671904337	0	0	0
22	1	1	0.0	0.0	18.320508075688775	0	0	0
23	1	1	0.0	-0.49999999999999994	19.186533479473212	0	0	0
24	1	1	0.0	0.0	20.05255888325765	0	0	0
25	1	1	0.0	-0.49999999999999994	20.918584287042087	0	0	0
26	1	1	0.0	0.0	21.784609690826525	0	0	0
27	1	1	0.0	-0.49999999999999994	22.650635094610962	0	0	0
28	1	1	0.0	0.0	23.5166604983954	0	0	0
29	1	1	0.0	-0.49999999999999994	24.382685902179837	0	0	0
30	1	1	0.0	0.0	25.248711305964274	0	0	0
31	1	1	0.0	-0.49999999999999994	26.114736709748712	0	0	0
32	1	1	0.0	0.0	26.98076211353315	0	0	0
33	1	1	0.0	-0.49999999999999994	27.846787517317587	0	0	0
34	1	1	0.0	0.0	28.712812921102024	0	0	0
35	1	1	0.0	-0.49999999999999994	29.578838324886462	0	0	0
36	1	1	0.0	0.0	30.4448637286709	0	0	0
37	1	1	0.0	-0.49999999999999994	31.310889132455337	0	0	0
38	1	1	0.0	0.0	32.17691453623978	0	0	0
39	1	1	0.0	-0.49999999999999994	33.04293994002422	0	0	0
40	1	1	0.0	0.0	33.90896534380866	0	0	0
41	1	1	0.0	-0.49999999999999994	34.7749907475931	0	0	0
42	1	1	0.0	0.0	35.64101615137754	0	0	0
43	1	1	0.0	-0.49999999999999994	36.50704155516198	0	0	0
44	1	1	0.0	0.0	37.373066958946424	0	0	0
45	1	1	0.0	-0.49999999999999994	38.239092362730865	0	0	0
46	1	1	0.0	0.0	39.105117766515306	0	0	0
47	1	1	0.0	-0.49999999999999994	39.97114317029975	0	0	0
48	1	1	0.0	0.0	40.83716857408419	0	0	0
49	1	1	0.0	-0.49999999999999994	41.70319397786863	0	0	0
50	1	1	0.0	0.0	42.56921938165307	0	0	0
51	1	1	0.0	-0.49999999999999994	43.43524478543751	0	0	0
52	1	1	0.0	0.0	44.30127018922195	0	0	0
53	1	1	0.0	-0.49999999999999994	45.16729559300639	0	0	0
54	1	1	0.0	0.0	46.033320996790835	0	0	0
55	1	1	0.0	-0.49999999999999994	46.899346400575276	0	0	0
56	1	1	0.0	0.0	47.76537180435972	0	0	0
57	1	1	0.0	-0.49999999999999994	48.63139720814416	0	0	0
58	1	1	0.0	0.0	49.4974226119286	0	0	0
59	1	1	0.0	-0.49999999999999994	50.36344801571304	0	0	0
60	1	1	0.0	0.0	51.22947341949748	0	0	0
61	1	1	0.0	-0.49999999999999994	52.09549882328192	0	0	0
62	1	1	0.0	0.0	52.96152422706636	0	0	0
63	1	1	0.0	-0.49999999999999994	53.827549630850804	0	0	0
64	1	1	0.0	0.0	54.693575034635245	0	0	0
65	1	1	0.0	-0.49999999999999994	55.559600438419686	0	0	0
66	1	1	0.0	0.0	56.42562584220413	0	0	0
67	1	1	0.0	-0.49999999999999994	57.29165124598857	0	0	0
68	1	1	0.0	0.0	58.15767664977301	0	0	0
69	1	1	0.0	-0.49999999999999994	59.02370205355745	0	0	0
70	1	1	0.0	0.0	59.88972745734189	0	0	0
71	1	1	0.0	-0.49999999999999994	60.75575286112633	0	0	0
72	1	1	0.0	0.0	61.62177826491077	0	0	0
73	1	1	0.0	-0.49999999999999994	62.487803668695214	0	0	0
74	1	1	0.0	0.0	63.353829072479655	0	0	0
75	1	1	0.0	-0.49999999999999994	64.21985447626409	0	0	0
76	1	1	0.0	0.0	65.08587988004852	0	0	0
77	1	1	0.0	-0.49999999999999994	65.95190528383296	0	0	0
78	1	1	0.0	0.0	66.81793068761739	0	0	0
79	1	1	0.0	-0.49999999999999994	67.68395609140183	0	0	0
80	1	1	0.0	0.0	68.54998149518626	0	0	0
81	1	1	0.0	-0.49999999999999994	69.41600689897069	0	0	0
82	1	1	0.0	0.0	70.28203230275513	0	0	0
83	1	1	0.0	-0.49999999999999994	71.14805770653956	0	0	0
84	1	1	0.0	0.0	72.014083110324	0	0	0
85	1	1	0.0	-0.49999999999999994	72.88010851410843	0	0	0
86	1	1	0.0	0.0	73.74613391789286	0	0	0
87	1	1	0.0	-0.49999999999999994	74.6121593216773	0	0	0
88	1	1	0.0	0.0	75.47818472546173	0	0	0
89	1	1	0.0	-0.49999999999999994	76.34421012924616	0	0	0
90	1	1	0.0	0.0	77.2102355330306	0	0	0
91	1	1	0.0	-0.49999999999999994	78.07626093681503	0	0	0
92	1	1	0.0	0.0	78.94228634059947	0	0	0
93	1	1	0.0	-0.49999999999999994	79.8083117443839	0	0	0
94	1	1	0.0	0.0	80.67433714816833	0	0	0
95	1	1	0.0	-0.49999999999999994	81.54036255195277	0	0	0
96	1	1	0.0	0.0	82.4063879557372	0	0	0
97	1	1	0.0	-0.49999999999999994	83.27241335952164	0	0	0
98	1	1	0.0	0.0	84.13843876330607	0	0	0
99	1	1	0.0	-0.49999999999999994	85.0044641670905	0	0	0
100	1	1	0.0	0.0	85.87048957087494	0	0	0
101	1	1	0.0	-0.49999999999999994	86.73651497465937	0	0	0
102	1	1	0.0	0.0	87.6025403784438	0	0	0
103	1	1	0.0	-0.49999999999999994	88.46856578222824	0	0	0
104	1	1	0.0	0.0	89.33459118601267	0	0	0
105	1	1	0.0	-0.49999999999999994	90.20061658979711	0	0	0
106	1	1	0.0	0.0	91.06664199358154	0	0	0
107	1	1	0.0	-0.49999999999999994	91.93266739736598	0	0	0
108	1	1	0.0	0.0	92.79869280115041	0	0	0
109	1	1	0.0	-0.49999999999999994	93.66471820493484	0	0	0
110	1	1	0.0	0.0	94.53074360871928	0	0	0
111	1	1	0.0	-0.49999999999999994	95.39676901250371	0	0	0
112	1	1	0.0	0.0	96.26279441628814	0	0	0
113	1	1	0.0	-0.49999999999999994	97.12881982007258	0	0	0
114	1	1	0.0	0.0	97.99484522385701	0	0	0
115	1	1	0.0	-0.49999999999999994	98.86087062764145	0	0	0
116	1	1	0.0	0.0	99.72689603142588	0	0	0
117	1	1	0.0	-0.49999999999999994	100.59292143521031	0	0	0
118	1	1	0.0	0.0	101.45894683899475	0	0	0
119	1	1	0.0	-0.49999999999999994	102.32497224277918	0	0	0
120	1	1	0.0	0.0	103.19099764656362	0	0	0
121	1	1	0.0	-0.49999999999999994	104.05702305034805	0	0	0
122	1	1	0.0	0.0	104.92304845413248	0	0	0
123	1	1	0.0	-0.49999999999999994	105.78907385791692	0	0	0
124	1	1	0.0	0.0	106.65509926170135	0	0	0
125	1	1	0.0	-0.49999999999999994	107.52112466548579	0	0	0
126	1	1	0.0	0.0	108.38715006927022	0	0	0
127	1	1	0.0	-0.49999999999999994	109.25317547305465	0	0	0
128	1	1	0.0	0.0	110.11920087683909	0	0	0
129	1	1	0.0	-0.49999999999999994	110.98522628062352	0	0	0
130	1	1	0.0	0.0	111.85125168440796	0	0	0
131	1	1	0.0	-0.49999999999999994	112.71727708819239	0	0	0
132	1	1	0.0	0.0	113.58330249197682	0	0	0
133	1	1	0.0	-0.49999999999999994	114.44932789576126	0	0	0
134	1	1	0.0	0.0	115.31535329954569	0	0	0
135	1	1	0.0	-0.49999999999999994	116.18137870333013	0	0	0
136	1	1	0.0	0.0	117.04740410711456	0	0	0
137	1	1	0.0	-0.49999999999999994	117.913429510899	0	0	0
138	1	1	0.0	0.0	118.77945491468343	0	0	0
139	1	1	0.0	-0.49999999999999994	119.64548031846786	0	0	0
140	1	1	0.0	0.0	120.5115057222523	0	0	0
141	1	1	0.0	-0.49999999999999994	121.37753112603673	0	0	0
142	1	1	0.0	0.0	122.24355652982116	0	0	0
143	1	1	0.0	-0.49999999999999994	123.1095819336056	0	0	0
144	1	1	0.0	0.0	123.97560733739003	0	0	0
145	1	1	0.0	-0.49999999999999994	124.84163274117446	0	0	0
146	1	1	0.0	0.0	125.7076581449589	0	0	0
147	1	1	0.0	-0.49999999999999994	126.57368354874333	0	0	0
148	1	1	0.0	0.0	127.43970895252777	0	0	0
149	1	1	0.0	-0.49999999999999994	128.3057343563122	0	0	0
150	1	1	0.0	0.0	129.17175976009665	0	0	0
151	1	1	0.0	-0.49999999999999994	130.0377851638811	0	0	0
152	1	1	0.0	0.0	130.90381056766554	0	0	0
153	1	1	0.0	-0.49999999999999994	131.76983597145	0	0	0
154	1	1	0.0	0.0	132.63586137523444	0	0	0
155	1	1	0.0	-0.49999999999999994	133.5018867790189	0	0	0
156	1	1	0.0	0.0	134.36791218280334	0	0	0
157	1	1	0.0	-0.49999999999999994	135.23393758658779	0	0	0
158	1	1	0.0	0.0	136.09996299037223	0	0	0
159	1	1	0.0	-0.49999999999999994	136.96598839415668	0	0	0
160	1	1	0.0	0.0	137.83201379794113	0	0	0
161	1	1	0.0	-0.49999999999999994	138.69803920172558	0	0	0
162	1	1	0.0	0.0	139.56406460551003	0	0	0
163	1	1	0.0	-0.49999999999999994	140.43009000929447	0	0	0
164	1	1	0.0	0.0	141.29611541307892	0	0	0
165	1	1	0.0	-0.49999999999999994	142.16214081686337	0	0	0
166	1	1	0.0	0.0	143.02816622064782	0	0	0
167	1	1	0.0	-0.49999999999999994	143.89419162443227	0	0	0
168	1	1	0.0	0.0	144.76021702821672	0	0	0
169	1	1	0.0	-0.49999999999999994	145.62624243200116	0	0	0
170	1	1	0.0	0.0	146.4922678357856	0	0	0
171	1	1	0.0	-0.49999999999999994	147.35829323957006	0	0	0
172	1	1	0.0	0.0	148.2243186433545	0	0	0
173	1	1	0.0	-0.49999999999999994	149.09034404713896	0	0	0
174	1	1	0.0	0.0	149.9563694509234	0	0	0
175	1	1	0.0	-0.49999999999999994	150.82239485470785	0	0	0
176	1	1	0.0	0.0	151.6884202584923	0	0	0
177	1	1	0.0	-0.49999999999999994	152.55444566227675	0	0	0
178	1	1	0.0	0.0	153.4204710660612	0	0	0
179	1	1	0.0	-0.49999999999999994	154.28649646984564	0	0	0
180	1	1	0.0	0.0	155.1525218736301	0	0	0
181	1	1	0.0	-0.49999999999999994	156.01854727741454	0	0	0
182	1	1	0.0	0.0	156.884572681199	0	0	0
183	1	1	0.0	-0.49999999999999994	157.75059808498344	0	0	0
184	1	1	0.0	0.0	158.61662348876789	0	0	0
185	1	1	0.0	-0.49999999999999994	159.48264889255233	0	0	0
186	1	1	0.0	0.0	160.34867429633678	0	0	0
187	1	1	0.0	-0.49999999999999994	161.21469970012123	0	0	0
188	1	1	0.0	0.0	162.08072510390568	0	0	0
189	1	1	0.0	-0.49999999999999994	162.94675050769013	0	0	0
190	1	1	0.0	0.0	163.81277591147457	0	0	0
191	1	1	0.0	-0.49999999999999994	164.67880131525902	0	0	0
192	1	1	0.0	0.0	165.54482671904347	0	0	0
193	1	1	0.0	-0.49999999999999994	166.41085212282792	0	0	0
194	1	1	0.0	0.0	167.27687752661237	0	0	0
195	1	1	0.0	-0.49999999999999994	168.14290293039682	0	0	0
196	1	1	0.0	0.0	169.00892833418126	0	0	0
197	1	1	0.0	-0.49999999999999994	169.8749537379657	0	0	0
198	1	1	0.0	0.0	170.74097914175016	0	0	0
199	1	1	0.0	-0.49999999999999994	171.6070045455346	0	0	0
200	1	1	0.0	0.0	172.47302994931906	0	0	0
201	1	1	0.0	-0.49999999999999994	173.3390553531035	0	0	0
202	1	1	0.0	0.0	174.20508075688795	0	0	0
203	1	1	0.0	-0.49999999999999994	175.0711061606724	0	0	0
204	1	1	0.0	0.0	175.93713156445685	0	0	0
205	1	1	0.0	-0.49999999999999994	176.8031569682413	0	0	0
206	1	1	0.0	0.0	177.66918237202574	0	0	0
207	1	1	0.0	-0.49999999999999994	178.5352077758102	0	0	0
208	1	1	0.0	0.0	179.40123317959464	0	0	0
209	1	1	0.0	-0.49999999999999994	180.2672585833791	0	0	0
210	1	1	0.0	0.0	181.13328398716354	0	0	0
211	1	1	0.0	-0.49999999999999994	181.99930939094799	0	0	0
212	1	1	0.0	0.0	182.86533479473243	0	0	0
213	1	1	0.0	-0.49999999999999994	183.73136019851688	0	0	0
214	1	1	0.0	0.0	184.59738560230133	0	0	0
215	1	1	0.0	-0.49999999999999994	185.46341100608578	0	0	0
216	1	1	0.0	0.0	186.32943640987023	0	0	0
217	1	1	0.0	-0.49999999999999994	187.19546181365467	0	0	0
218	1	1	0.0	0.0	188.06148721743912	0	0	0
219	1	1	0.0	-0.49999999999999994	188.92751262122357	0	0	0
220	1	1	0.0	0.0	189.79353802500802	0	0	0
221	1	1	0.0	-0.49999999999999994	190.65956342879247	0	0	0
222	1	1	0.0	0.0	191.52558883257691	0	0	0
223	1	1	0.0	-0.49999999999999994	192.39161423636136	0	0	0
224	1	1	0.0	0.0	193.2576396401458	0	0	0
225	1	1	0.0	-0.49999999999999994	194.12366504393026	0	0	0
226	1	1	0.0	0.0	194.9896904477147	0	0	0
227	1	1	0.0	-0.49999999999999994	195.85571585149916	0	0	0
228	1	1	0.0	0.0	196.7217412552836	0	0	0
229	1	1	0.0	-0.49999999999999994	197.58776665906805	0	0	0
230	1	1	0.0	0.0	198.4537920628525	0	0	0
231	1	1	0.0	-0.49999999999999994	199.31981746663695	0	0	0
232	1	1	0.0	0.0	200.1858428704214	0	0	0
233	1	1	0.0	-0.49999999999999994	201.05186827420584	0	0	0
234	1	1	0.0	0.0	201.9178936779903	0	0	0
235	1	1	-0.09454604084243813	-0.4955171256388115	202.78133089305558	0	0	0
236	1	1	-0.18909208168487546	-1.3563661519849006	203.28133089305558	0	0	0
237	1	1	-0.2836381225273128	-1.3537779632657168	204.2768480186944	0	0	0
238	1	1	-0.37818416336975014	-2.214626989611806	204.7768480186944	0	0	0
239	1	1	-0.4727302042121875	-2.212038800892622	205.77236514433324	0	0	0
240	1	1	-0.5672762450546248	-3.072887827238711	206.27236514433324	0	0	0
241	1	1	-0.6618222858970622	-3.0702996385195274	207.26788226997206	0	0	0
242	1	1	-0.7563683267394995	-3.931148664865616	207.76788226997206	0	0	0
243	1	1	-0.8509143675819368	-3.9285604761464326	208.7633993956109	0	0	0
244	1	1	-0.9454604084243742	-4.789409502492521	209.2633993956109	0	0	0
245	1	1	-1.0400064492668115	-4.786821313773338	210.25891652124972	0	0	0
246	1	1	-1.134552490109249	-5.647670340119427	210.75891652124972	0	0	0
247	1	1	-1.2290985309516864	-5.645082151400243	211.75443364688854	0	0	0
248	1	1	-1.3236445717941239	-6.505931177746332	212.25443364688854	0	0	0
249	1	1	-1.4181906126365613	-6.503342989027148	213.24995077252737	0	0	0
250	1	1	-1.5127366534789988	-7.364192015373237	213.74995077252737	0	0	0
251	1	1	-1.6072826943214362	-7.361603826654053	214.7454678981662	0	0	0
252	1	1	-1.7018287351638737	-8.222452853000142	215.2454678981662	0	0	0
253	1	1	-1.7963747760063111	-8.219864664280959	216.24098502380502	0	0	0
254	1	1	-1.8909208168487486	-9.080713690627048	216.74098502380502	0	0	0
255	1	1	-1.985466857691186	-9.078125501907865	217.73650214944385	0	0	0
256	1	1	-2.0800128985336235	-9.938974528253954	218.23650214944385	0	0	0
257	1	1	-2.1745589393760607	-9.93638633953477	219.23201927508268	0	0	0
258	1	1	-2.269104980218498	-10.79723536588086	219.73201927508268	0	0	0
259	1	1	-2.363651021060935	-10.794647177161677	220.7275364007215	0	0	0
260	1	1	-2.4581970619033724	-11.655496203507766	221.2275364007215	0	0	0
261	1	1	-2.5527431027458096	-11.652908014788583	222.22305352636033	0	0	0
262	1	1	-2.647289143588247	-12.513757041134673	222.72305352636033	0	0	0
263	1	1	-2.741835184430684	-12.511168852415489	223.71857065199916	0	0	0
264	1	1	-2.8363812252731213	-13.372017878761579	224.21857065199916	0	0	0
265	1	1	-2.9309272661155585	-13.369429690042395	225.21408777763799	0	0	0
266	1	1	-3.0254733069579958	-14.230278716388485	225.71408777763799	0	0	0
267	1	1	-3.120019347800433	-14.227690527669301	226.7096049032768	0	0	0
268	1	1	-3.2145653886428702	-15.08853955401539	227.2096049032768	0	0	0
269	1	1	-3.3091114294853075	-15.085951365296207	228.20512202891564	0	0	0
270	1	1	-3.4036574703277447	-15.946800391642297	228.70512202891564	0	0	0
271	1	1	-3.498203511170182	-15.944212202923113	229.70063915455447	0	0	0
272	1	1	-3.592749552012619	-16.805061229269203	230.20063915455447	0	0	0
273	1	1	-3.6872955928550564	-16.80247304055002	231.1961562801933	0	0	0
274	1	1	-3.7818416336974936	-17.663322066896107	231.6961562801933	0	0	0
275	1	1	-3.876387674539931	-17.660733878176924	232.69167340583212	0	0	0
276	1	1	-3.970933715382368	-18.52158290452301	233.19167340583212	0	0	0
277	1	1	-4.065479756224805	-18.518994715803828	234.18719053147095	0	0	0
278	1	1	-4.1600257970672425	-19.379843742149916	234.68719053147095	0	0	0
279	1	1	-4.25457183790968	-19.377255553430732	235.68270765710977	0	0	0
280	1	1	-4.349117878752117	-20.23810457977682	236.18270765710977	0	0	0
281	1	1	-4.443663919594554	-20.235516391057637	237.1782247827486	0	0	0
282	1	1	-4.538209960436991	-21.096365417403725	237.6782247827486	0	0	0
283	1	1	-4.632756001279429	-21.09377722868454	238.67374190838743	0	0	0
284	1	1	-4.727302042121866	-21.95462625503063	239.17374190838743	0	0	0
285	1	1	-4.821848082964303	-21.952038066311445	240.16925903402625	0	0	0
286	1	1	-4.91639412380674	-22.812887092657533	240.66925903402625	0	0	0
287	1	1	-5.010940164649178	-22.81029890393835	241.66477615966508	0	0	0
288	1	1	-5.105486205491615	-23.671147930284437	242.16477615966508	0	0	0
289	1	1	-5.200032246334052	-23.668559741565254	243.1602932853039	0	0	0
290	1	1	-5.294578287176489	-24.52940876791134	243.6602932853039	0	0	0
291	1	1	-5.3891243280189265	-24.526820579192158	244.65581041094273	0	0	0
292	1	1	-5.483670368861364	-25.387669605538246	245.15581041094273	0	0	0
293	1	1	-5.578216409703801	-25.385081416819062	246.15132753658156	0	0	0
294	1	1	-5.672762450546238	-26.24593044316515	246.65132753658156	0	0	0
295	1	1	-5.767308491388675	-26.243342254445967	247.6468446622204	0	0	0
296	1	1	-5.861854532231113	-27.104191280792055	248.1468446622204	0	0	0
297	1	1	-5.95640057307355	-27.10160309207287	249.14236178785922	0	0	0
298	1	1	-6.050946613915987	-27.96245211841896	249.64236178785922	0	0	0
299	1	1	-6.145492654758424	-27.959863929699775	250.63787891349804	0	0	0
300	1	1	-6.2400386956008616	-28.820712956045863	251.13787891349804	0	0	0
301	1	1	-6.334584736443299	-28.81812476732668	252.13339603913687	0	0	0
302	1	1	-6.429130777285736	-29.678973793672768	252.63339603913687	0	0	0
303	1	1	-6.523676818128173	-29.676385604953584	253.6289131647757	0	0	0
304	1	1	-6.6182228589706105	-30.537234631299672	254.1289131647757	0	0	0
305	1	1	-6.712768899813048	-30.534646442580488	255.12443029041452	0	0	0
306	1	1	-6.807314940655485	-31.395495468926576	255.62443029041452	0	0	0
307	1	1	-6.901860981497922	-31.392907280207393	256.6199474160533	0	0	0
308	1	1	-6.996407022340359	-32.253756306553484	257.1199474160533	0	0	0
309	1	1	-7.090953063182797	-32.2511681178343	258.1154645416921	0	0	0
310	1	1	-7.185499104025234	-33.112017144180385	258.6154645416921	0	0	0
311	1	1	-7.280045144867671	-33.1094289554612	259.6109816673309	0	0	0
312	1	1	-7.374591185710108	-33.970277981807286	260.1109816673309	0	0	0
313	1	1	-7.4691372265525455	-33.9676897930881	261.1064987929697	0	0	0
314	1	1	-7.563683267394983	-34.828538819434186	261.6064987929697	0	0	0
315	1	1	-7.65822930823742	-34.825950630715	262.6020159186085	0	0	0
316	1	1	-7.752775349079857	-35.68679965706109	263.1020159186085	0	0	0
317	1	1	-7.847321389922294	-35.6842114683419	264.0975330442473	0	0	0
318	1	1	-7.941867430764732	-36.54506049468799	264.5975330442473	0	0	0
319	1	1	-8.036413471607169	-36.5424723059688	265.5930501698861	0	0	0
320	1	1	-8.130959512449607	-37.40332133231489	266.0930501698861	0	0	0
321	1	1	-8.225505553292045	-37.4007331435957	267.0885672955249	0	0	0
322	1	1	-8.320051594134483	-38.26158216994179	267.5885672955249	0	0	0
323	1	1	-8.414597634976921	-38.2589939812226	268.5840844211637	0	0	0
324	1	1	-8.50914367581936	-39.11984300756869	269.0840844211637	0	0	0
325	1	1	-8.603689716661798	-39.1172548188495	270.0796015468025	0	0	0
326	1	1	-8.698235757504236	-39.97810384519559	270.5796015468025	0	0	0
327	1	1	-8.792781798346674	-39.975515656476404	271.5751186724413	0	0	0
328	1	1	-8.887327839189112	-40.83636468282249	272.0751186724413	0	0	0
329	1	1	-8.98187388003155	-40.833776494103304	273.0706357980801	0	0	0
330	1	1	-9.076419920873988	-41.69462552044939	273.5706357980801	0	0	0
331	1	1	-9.170965961716426	-41.692037331730205	274.5661529237189	0	0	0
332	1	1	-9.265512002558864	-42.55288635807629	275.0661529237189	0	0	0
333	1	1	-9.360058043401303	-42.550298169357106	276.0616700493577	0	0	0
334	1	1	-9.45460408424374	-43.411147195703194	276.5616700493577	0	0	0
335	1	1	-9.549150125086179	-43.40855900698401	277.5571871749965	0	0	0
336	1	1	-9.643696165928617	-44.269408033330095	278.0571871749965	0	0	0
337	1	1	-9.738242206771055	-44.26681984461091	279.0527043006353	0	0	0
338	1	1	-9.832788247613493	-45.127668870956995	279.5527043006353	0	0	0
339	1	1	-9.927334288455931	-45.12508068223781	280.5482214262741	0	0	0
340	1	1	-10.02188032929837	-45.985929708583896	281.0482214262741	0	0	0
341	1	1	-10.116426370140807	-45.98334151986471	282.0437385519129	0	0	0
342	1	1	-10.210972410983246	-46.8441905462108	282.5437385519129	0	0	0
343	1	1	-10.305518451825684	-46.84160235749161	283.5392556775517	0	0	0
344	1	1	-10.400064492668122	-47.7024513838377	284.0392556775517	0	0	0
345	1	1	-10.49461053351056	-47.69986319511851	285.0347728031905	0	0	0
346	1	1	-10.589156574352998	-48.5607122214646	285.5347728031905	0	0	0
347	1	1	-10.683702615195436	-48.55812403274541	286.5302899288293	0	0	0
348	1	1	-10.778248656037874	-49.4189730590915	287.0302899288293	0	0	0
349	1	1	-10.872794696880312	-49.41638487037231	288.0258070544681	0	0	0
350	1	1	-10.96734073772275	-50.2772338967184	288.5258070544681	0	0	0
351	1	1	-11.061886778565189	-50.27464570799921	289.5213241801069	0	0	0
352	1	1	-11.156432819407627	-51.1354947343453	290.0213241801069	0	0	0
353	1	1	-11.250978860250065	-51.13290654562611	291.0168413057457	0	0	0
354	1	1	-11.345524901092503	-51.9937555719722	291.5168413057457	0	0	0
355	1	1	-11.440070941934941	-51.991167383253014	292.5123584313845	0	0	0
356	1	1	-11.53461698277738	-52.8520164095991	293.0123584313845	0	0	0
357	1	1	-11.629163023619817	-52.849428220879915	294.0078755570233	0	0	0
358	1	1	-11.723709064462255	-53.710277247226	294.5078755570233	0	0	0
359	1	1	-11.818255105304694	-53.707689058506816	295.5033926826621	0	0	0
360	1	1	-11.912801146147132	-54.568538084852904	296.0033926826621	0	0	0
361	1	1	-12.00734718698957	-54.565949896133716	296.9989098083009	0	0	0
362	1	1	-12.101893227832008	-55.426798922479804	297.4989098083009	0	0	0
363	1	1	-12.196439268674446	-55.42421073376062	298.4944269339397	0	0	0
364	1	1	-12.290985309516884	-56.285059760106705	298.9944269339397	0	0	0
365	1	1	-12.385531350359322	-56.28247157138752	299.9899440595785	0	0	0
366	1	1	-12.48007739120176	-57.143320597733606	300.4899440595785	0	0	0
367	1	1	-12.574623432044199	-57.14073240901442	301.4854611852173	0	0	0
368	1	1	-12.669169472886637	-58.00158143536051	301.9854611852173	0	0	0
369	1	1	-12.763715513729075	-57.99899324664132	302.9809783108561	0	0	0
370	1	1	-12.858261554571513	-58.85984227298741	303.4809783108561	0	0	0
371	1	1	-12.952807595413951	-58.85725408426822	304.4764954364949	0	0	0
372	1	1	-13.047353636256389	-59.71810311061431	304.9764954364949	0	0	0
373	1	1	-13.141899677098827	-59.71551492189512	305.97201256213367	0	0	0
374	1	1	-13.236445717941265	-60.57636394824121	306.47201256213367	0	0	0
375	1	1	-13.330991758783703	-60.57377575952202	307.46752968777247	0	0	0
376	1	1	-13.425537799626142	-61.43462478586811	307.96752968777247	0	0	0
377	1	1	-13.52008384046858	-61.43203659714892	308.96304681341127	0	0	0
378	1	1	-13.614629881311018	-62.29288562349501	309.46304681341127	0	0	0
379	1	1	-13.709175922153456	-62.29029743477582	310.45856393905007	0	0	0
380	1	1	-13.803721962995894	-63.15114646112191	310.95856393905007	0	0	0
381	1	1	-13.898268003838332	-63.148558272402724	311.95408106468886	0	0	0
382	1	1	-13.99281404468077	-64.00940729874881	312.45408106468886	0	0	0
383	1	1	-14.087360085523208	-64.00681911002962	313.44959819032766	0	0	0
384	1	1	-14.181906126365647	-64.86766813637571	313.94959819032766	0	0	0
385	1	1	-14.276452167208085	-64.86507994765653	314.94511531596646	0	0	0
386	1	1	-14.370998208050523	-65.72592897400261	315.44511531596646	0	0	0
387	1	1	-14.46554424889296	-65.72334078528343	316.44063244160526	0	0	0
388	1	1	-14.560090289735399	-66.58418981162951	316.94063244160526	0	0	0
389	1	1	-14.654636330577837	-66.58160162291033	317.93614956724406	0	0	0
390	1	1	-14.749182371420275	-67.44245064925641	318.43614956724406	0	0	0
391	1	1	-14.843728412262713	-67.43986246053723	319.43166669288286	0	0	0
392	1	1	-14.938274453105151	-68.30071148688332	319.93166669288286	0	0	0
393	1	1	-15.03282049394759	-68.29812329816413	320.92718381852166	0	0	0
394	1	1	-15.127366534790028	-69.15897232451022	321.42718381852166	0	0	0
395	1	1	-15.221912575632466	-69.15638413579103	322.42270094416045	0	0	0
396	1	1	-15.316458616474904	-70.01723316213712	322.92270094416045	0	0	0
397	1	1	-15.411004657317342	-70.01464497341793	323.91821806979925	0	0	0
398	1	1	-15.50555069815978	-70.87549399976402	324.41821806979925	0	0	0
399	1	1	-15.600096739002218	-70.87290581104483	325.41373519543805	0	0	0
400	1	1	-15.694642779844656	-71.73375483739092	325.91373519543805	0	0	0
401	1	1	-15.789188820687095	-71.73116664867173	326.90925232107685	0	0	0
402	1	1	-15.883734861529533	-72.59201567501782	327.40925232107685	0	0	0
403	1	1	-15.97828090237197	-72.58942748629863	328.40476944671565	0	0	0
404	1	1	-16.07282694321441	-73.45027651264472	328.90476944671565	0	0	0
405	1	1	-16.167372984056847	-73.44768832392553	329.90028657235445	0	0	0
406	1	1	-16.261919024899285	-74.30853735027162	330.40028657235445	0	0	0
407	1	1	-16.356465065741723	-74.30594916155243	331.39580369799324	0	0	0
408	1	1	-16.45101110658416	-75.16679818789852	331.89580369799324	0	0	0
409	1	1	-16.5455571474266	-75.16420999917933	332.89132082363204	0	0	0
410	1	1	-16.640103188269038	-76.02505902552542	333.39132082363204	0	0	0
411	1	1	-16.734649229111476	-76.02247083680624	334.38683794927084	0	0	0
412	1	1	-16.829195269953914	-76.88331986315232	334.88683794927084	0	0	0
413	1	1	-16.923741310796352	-76.88073167443314	335.88235507490964	0	0	0
414	1	1	-17.01828735163879	-77.74158070077922	336.38235507490964	0	0	0
415	1	1	-17.112833392481228	-77.73899251206004	337.37787220054844	0	0	0
416	1	1	-17.207379433323666	-78.59984153840612	337.87787220054844	0	0	0
417	1	1	-17.301925474166104	-78.59725334968694	338.87338932618724	0	0	0
418	1	1	-17.396471515008542	-79.45810237603303	339.37338932618724	0	0	0
419	1	1	-17.49101755585098	-79.45551418731384	340.36890645182604	0	0	0
420	1	1	-17.58556359669342	-80.31636321365993	340.86890645182604	0	0	0
421	1	1	-17.680109637535857	-80.31377502494074	341.86442357746483	0	0	0
422	1	1	-17.774655678378295	-81.17462405128683	342.36442357746483	0	0	0
423	1	1	-17.869201719220733	-81.17203586256764	343.35994070310363	0	0	0
424	1	1	-17.96374776006317	-82.03288488891373	343.85994070310363	0	0	0
425	1	1	-18.05829380090561	-82.03029670019454	344.85545782874243	0	0	0
426	1	1	-18.152839841748047	-82.89114572654063	345.35545782874243	0	0	0
427	1	1	-18.247385882590486	-82.88855753782144	346.35097495438123	0	0	0
428	1	1	-18.341931923432924	-83.74940656416753	346.85097495438123	0	0	0
429	1	1	-18.436477964275362	-83.74681837544834	347.84649208002	0	0	0
430	1	1	-18.5310240051178	-84.60766740179443	348.34649208002	0	0	0
431	1	1	-18.625570045960238	-84.60507921307524	349.3420092056588	0	0	0
432	1	1	-18.720116086802676	-85.46592823942133	349.8420092056588	0	0	0
433	1	1	-18.814662127645114	-85.46334005070214	350.8375263312976	0	0	0
434	1	1	-18.909208168487552	-86.32418907704823	351.3375263312976	0	0	0
435	1	1	-19.00375420932999	-86.32160088832904	352.3330434569364	0	0	0
436	1	1	-19.09830025017243	-87.18244991467513	352.8330434569364	0	0	0
437	1	1	-19.192846291014867	-87.17986172595594	353.8285605825752	0	0	0
438	1	1	-19.287392331857305	-88.04071075230203	354.3285605825752	0	0	0
439	1	1	-19.381938372699743	-88.03812256358285	355.324077708214	0	0	0
440	1	1	-19.47648441354218	-88.89897158992893	355.824077708214	0	0	0
441	1	1	-19.57103045438462	-88.89638340120975	356.8195948338528	0	0	0
442	1	1	-19.665576495227057	-89.75723242755583	357.3195948338528	0	0	0
443	1	1	-19.760122536069495	-89.75464423883665	358.3151119594916	0	0	0
444	1	1	-19.854668576911934	-90.61549326518274	358.8151119594916	0	0	0
445	1	1	-19.94921461775437	-90.61290507646355	359.8106290851304	0	0	0
446	1	1	-20.04376065859681	-91.47375410280964	360.3106290851304	0	0	0
447	1	1	-20.138306699439248	-91.47116591409045	361.3061462107692	0	0	0
448	1	1	-20.232852740281686	-92.33201494043654	361.8061462107692	0	0	0
449	1	1	-20.327398781124124	-92.32942675171735	362.801663336408	0	0	0
450	1	1	-20.421944821966562	-93.19027577806344	363.301663336408	0	0	0
451	1	1	-20.516490862809	-93.18768758934425	364.2971804620468	0	0	0
452	1	1	-20.61103690365144	-94.04853661569034	364.7971804620468	0	0	0
453	1	1	-20.705582944493877	-94.04594842697115	365.7926975876856	0	0	0
454	1	1	-20.800128985336315	-94.90679745331724	366.2926975876856	0	0	0
455	1	1	-20.894675026178753	-94.90420926459805	367.2882147133244	0	0	0
456	1	1	-20.98922106702119	-95.76505829094414	367.7882147133244	0	0	0
457	1	1	-21.08376710786363	-95.76247010222495	368.7837318389632	0	0	0
458	1	1	-21.178313148706067	-96.62331912857104	369.2837318389632	0	0	0
459	1	1	-21.272859189548505	-96.62073093985185	370.279248964602	0	0	0
460	1	1	-21.367405230390943	-97.48157996619794	370.779248964602	0	0	0
461	1	1	-21.46195127123338	-97.47899177747875	371.7747660902408	0	0	0
462	1	1	-21.55649731207582	-98.33984080382484	372.2747660902408	0	0	0
463	1	1	-21.651043352918258	-98.33725261510565	373.2702832158796	0	0	0
464	1	1	-21.745589393760696	-99.19810164145174	373.7702832158796	0	0	0
465	1	1	-21.840135434603134	-99.19551345273256	374.7658003415184	0	0	0
466	1	1	-21.934681475445572	-100.05636247907864	375.2658003415184	0	0	0
467	1	1	-22.02922751628801	-100.05377429035946	376.2613174671572	0	0	0
468	1	1	0.09454604084244092	0.9955171256388262	201.92048186670942	0	0	0
469	1	1	0.18909208168488106	1.8563661519849362	202.4204818667094	0	0	0
470	1	1	0.2836381225273212	2.719803367050188	201.92496474107054	0	0	0
471	1	1	0.3781841633697613	3.580652393396298	202.4249647410705	0	0	0
472	1	1	0.4727302042122014	4.44408960846155	201.92944761543166	0	0	0
473	1	1	0.5672762450546416	5.304938634807661	202.42944761543163	0	0	0
474	1	1	0.6618222858970817	6.168375849872913	201.93393048979277	0	0	0
475	1	1	0.7563683267395218	7.029224876219023	202.43393048979274	0	0	0
476	1	1	0.8509143675819619	7.892662091284275	201.9384133641539	0	0	0
477	1	1	0.945460408424402	8.753511117630385	202.43841336415386	0	0	0
478	1	1	1.0400064492668422	9.616948332695637	201.942896238515	0	0	0
479	1	1	1.1345524901092823	10.477797359041746	202.44289623851498	0	0	0
480	1	1	1.2290985309517224	11.341234574106998	201.94737911287612	0	0	0
481	1	1	1.3236445717941625	12.202083600453108	202.4473791128761	0	0	0
482	1	1	1.4181906126366026	13.06552081551836	201.95186198723724	0	0	0
483	1	1	1.5127366534790427	13.926369841864469	202.4518619872372	0	0	0
484	1	1	1.6072826943214829	14.789807056929721	201.95634486159835	0	0	0
485	1	1	1.701828735163923	15.65065608327583	202.45634486159832	0	0	0
486	1	1	1.796374776006363	16.514093298341084	201.96082773595947	0	0	0
487	1	1	1.8909208168488032	17.374942324687193	202.46082773595944	0	0	0
488	1	1	1.9854668576912433	18.238379539752447	201.96531061032059	0	0	0
489	1	1	2.0800128985336834	19.099228566098557	202.46531061032056	0	0	0
490	1	1	2.1745589393761238	19.96266578116381	201.9697934846817	0	0	0
491	1	1	2.269104980218564	20.82351480750992	202.46979348468167	0	0	0
492	1	1	2.3636510210610044	21.686952022575174	201.97427635904282	0	0	0
493	1	1	2.458197061903445	22.547801048921283	202.4742763590428	0	0	0
494	1	1	2.552743102745885	23.411238263986537	201.97875923340393	0	0	0