bb533nuc1bl266bn3d30tot800

799 atoms
798 bonds
798 angles

1 atom types
1 bond types
1 angle types

-1000 1000 xlo xhi
-1000 1000 ylo yhi
-1000 1000 zlo zhi

Masses

1 1

Atoms

1	1	1	0.0	0.0	0.0	0	0	0
2	1	1	0.0	0.0	1.0	0	0	0
3	1	1	0.0	-0.49999999999999994	1.8660254037844388	0	0	0
4	1	1	0.0	0.0	2.7320508075688776	0	0	0
5	1	1	0.0	-0.49999999999999994	3.5980762113533165	0	0	0
6	1	1	0.0	0.0	4.464101615137755	0	0	0
7	1	1	0.0	-0.49999999999999994	5.330127018922194	0	0	0
8	1	1	0.0	0.0	6.196152422706632	0	0	0
9	1	1	0.0	-0.49999999999999994	7.06217782649107	0	0	0
10	1	1	0.0	0.0	7.928203230275509	0	0	0
11	1	1	0.0	-0.49999999999999994	8.794228634059948	0	0	0
12	1	1	0.0	0.0	9.660254037844387	0	0	0
13	1	1	0.0	-0.49999999999999994	10.526279441628827	0	0	0
14	1	1	0.0	0.0	11.392304845413266	0	0	0
15	1	1	0.0	-0.49999999999999994	12.258330249197705	0	0	0
16	1	1	0.0	0.0	13.124355652982144	0	0	0
17	1	1	0.0	-0.49999999999999994	13.990381056766584	0	0	0
18	1	1	0.0	0.0	14.856406460551023	0	0	0
19	1	1	0.0	-0.49999999999999994	15.722431864335462	0	0	0
20	1	1	0.0	0.0	16.5884572681199	0	0	0
21	1	1	0.0	-0.49999999999999994	17.454482671904337	0	0	0
22	1	1	0.0	0.0	18.320508075688775	0	0	0
23	1	1	0.0	-0.49999999999999994	19.186533479473212	0	0	0
24	1	1	0.0	0.0	20.05255888325765	0	0	0
25	1	1	0.0	-0.49999999999999994	20.918584287042087	0	0	0
26	1	1	0.0	0.0	21.784609690826525	0	0	0
27	1	1	0.0	-0.49999999999999994	22.650635094610962	0	0	0
28	1	1	0.0	0.0	23.5166604983954	0	0	0
29	1	1	0.0	-0.49999999999999994	24.382685902179837	0	0	0
30	1	1	0.0	0.0	25.248711305964274	0	0	0
31	1	1	0.0	-0.49999999999999994	26.114736709748712	0	0	0
32	1	1	0.0	0.0	26.98076211353315	0	0	0
33	1	1	0.0	-0.49999999999999994	27.846787517317587	0	0	0
34	1	1	0.0	0.0	28.712812921102024	0	0	0
35	1	1	0.0	-0.49999999999999994	29.578838324886462	0	0	0
36	1	1	0.0	0.0	30.4448637286709	0	0	0
37	1	1	0.0	-0.49999999999999994	31.310889132455337	0	0	0
38	1	1	0.0	0.0	32.17691453623978	0	0	0
39	1	1	0.0	-0.49999999999999994	33.04293994002422	0	0	0
40	1	1	0.0	0.0	33.90896534380866	0	0	0
41	1	1	0.0	-0.49999999999999994	34.7749907475931	0	0	0
42	1	1	0.0	0.0	35.64101615137754	0	0	0
43	1	1	0.0	-0.49999999999999994	36.50704155516198	0	0	0
44	1	1	0.0	0.0	37.373066958946424	0	0	0
45	1	1	0.0	-0.49999999999999994	38.239092362730865	0	0	0
46	1	1	0.0	0.0	39.105117766515306	0	0	0
47	1	1	0.0	-0.49999999999999994	39.97114317029975	0	0	0
48	1	1	0.0	0.0	40.83716857408419	0	0	0
49	1	1	0.0	-0.49999999999999994	41.70319397786863	0	0	0
50	1	1	0.0	0.0	42.56921938165307	0	0	0
51	1	1	0.0	-0.49999999999999994	43.43524478543751	0	0	0
52	1	1	0.0	0.0	44.30127018922195	0	0	0
53	1	1	0.0	-0.49999999999999994	45.16729559300639	0	0	0
54	1	1	0.0	0.0	46.033320996790835	0	0	0
55	1	1	0.0	-0.49999999999999994	46.899346400575276	0	0	0
56	1	1	0.0	0.0	47.76537180435972	0	0	0
57	1	1	0.0	-0.49999999999999994	48.63139720814416	0	0	0
58	1	1	0.0	0.0	49.4974226119286	0	0	0
59	1	1	0.0	-0.49999999999999994	50.36344801571304	0	0	0
60	1	1	0.0	0.0	51.22947341949748	0	0	0
61	1	1	0.0	-0.49999999999999994	52.09549882328192	0	0	0
62	1	1	0.0	0.0	52.96152422706636	0	0	0
63	1	1	0.0	-0.49999999999999994	53.827549630850804	0	0	0
64	1	1	0.0	0.0	54.693575034635245	0	0	0
65	1	1	0.0	-0.49999999999999994	55.559600438419686	0	0	0
66	1	1	0.0	0.0	56.42562584220413	0	0	0
67	1	1	0.0	-0.49999999999999994	57.29165124598857	0	0	0
68	1	1	0.0	0.0	58.15767664977301	0	0	0
69	1	1	0.0	-0.49999999999999994	59.02370205355745	0	0	0
70	1	1	0.0	0.0	59.88972745734189	0	0	0
71	1	1	0.0	-0.49999999999999994	60.75575286112633	0	0	0
72	1	1	0.0	0.0	61.62177826491077	0	0	0
73	1	1	0.0	-0.49999999999999994	62.487803668695214	0	0	0
74	1	1	0.0	0.0	63.353829072479655	0	0	0
75	1	1	0.0	-0.49999999999999994	64.21985447626409	0	0	0
76	1	1	0.0	0.0	65.08587988004852	0	0	0
77	1	1	0.0	-0.49999999999999994	65.95190528383296	0	0	0
78	1	1	0.0	0.0	66.81793068761739	0	0	0
79	1	1	0.0	-0.49999999999999994	67.68395609140183	0	0	0
80	1	1	0.0	0.0	68.54998149518626	0	0	0
81	1	1	0.0	-0.49999999999999994	69.41600689897069	0	0	0
82	1	1	0.0	0.0	70.28203230275513	0	0	0
83	1	1	0.0	-0.49999999999999994	71.14805770653956	0	0	0
84	1	1	0.0	0.0	72.014083110324	0	0	0
85	1	1	0.0	-0.49999999999999994	72.88010851410843	0	0	0
86	1	1	0.0	0.0	73.74613391789286	0	0	0
87	1	1	0.0	-0.49999999999999994	74.6121593216773	0	0	0
88	1	1	0.0	0.0	75.47818472546173	0	0	0
89	1	1	0.0	-0.49999999999999994	76.34421012924616	0	0	0
90	1	1	0.0	0.0	77.2102355330306	0	0	0
91	1	1	0.0	-0.49999999999999994	78.07626093681503	0	0	0
92	1	1	0.0	0.0	78.94228634059947	0	0	0
93	1	1	0.0	-0.49999999999999994	79.8083117443839	0	0	0
94	1	1	0.0	0.0	80.67433714816833	0	0	0
95	1	1	0.0	-0.49999999999999994	81.54036255195277	0	0	0
96	1	1	0.0	0.0	82.4063879557372	0	0	0
97	1	1	0.0	-0.49999999999999994	83.27241335952164	0	0	0
98	1	1	0.0	0.0	84.13843876330607	0	0	0
99	1	1	0.0	-0.49999999999999994	85.0044641670905	0	0	0
100	1	1	0.0	0.0	85.87048957087494	0	0	0
101	1	1	0.0	-0.49999999999999994	86.73651497465937	0	0	0
102	1	1	0.0	0.0	87.6025403784438	0	0	0
103	1	1	0.0	-0.49999999999999994	88.46856578222824	0	0	0
104	1	1	0.0	0.0	89.33459118601267	0	0	0
105	1	1	0.0	-0.49999999999999994	90.20061658979711	0	0	0
106	1	1	0.0	0.0	91.06664199358154	0	0	0
107	1	1	0.0	-0.49999999999999994	91.93266739736598	0	0	0
108	1	1	0.0	0.0	92.79869280115041	0	0	0
109	1	1	0.0	-0.49999999999999994	93.66471820493484	0	0	0
110	1	1	0.0	0.0	94.53074360871928	0	0	0
111	1	1	0.0	-0.49999999999999994	95.39676901250371	0	0	0
112	1	1	0.0	0.0	96.26279441628814	0	0	0
113	1	1	0.0	-0.49999999999999994	97.12881982007258	0	0	0
114	1	1	0.0	0.0	97.99484522385701	0	0	0
115	1	1	0.0	-0.49999999999999994	98.86087062764145	0	0	0
116	1	1	0.0	0.0	99.72689603142588	0	0	0
117	1	1	0.0	-0.49999999999999994	100.59292143521031	0	0	0
118	1	1	0.0	0.0	101.45894683899475	0	0	0
119	1	1	0.0	-0.49999999999999994	102.32497224277918	0	0	0
120	1	1	0.0	0.0	103.19099764656362	0	0	0
121	1	1	0.0	-0.49999999999999994	104.05702305034805	0	0	0
122	1	1	0.0	0.0	104.92304845413248	0	0	0
123	1	1	0.0	-0.49999999999999994	105.78907385791692	0	0	0
124	1	1	0.0	0.0	106.65509926170135	0	0	0
125	1	1	0.0	-0.49999999999999994	107.52112466548579	0	0	0
126	1	1	0.0	0.0	108.38715006927022	0	0	0
127	1	1	0.0	-0.49999999999999994	109.25317547305465	0	0	0
128	1	1	0.0	0.0	110.11920087683909	0	0	0
129	1	1	0.0	-0.49999999999999994	110.98522628062352	0	0	0
130	1	1	0.0	0.0	111.85125168440796	0	0	0
131	1	1	0.0	-0.49999999999999994	112.71727708819239	0	0	0
132	1	1	0.0	0.0	113.58330249197682	0	0	0
133	1	1	0.0	-0.49999999999999994	114.44932789576126	0	0	0
134	1	1	0.0	0.0	115.31535329954569	0	0	0
135	1	1	0.0	-0.49999999999999994	116.18137870333013	0	0	0
136	1	1	0.0	0.0	117.04740410711456	0	0	0
137	1	1	0.0	-0.49999999999999994	117.913429510899	0	0	0
138	1	1	0.0	0.0	118.77945491468343	0	0	0
139	1	1	0.0	-0.49999999999999994	119.64548031846786	0	0	0
140	1	1	0.0	0.0	120.5115057222523	0	0	0
141	1	1	0.0	-0.49999999999999994	121.37753112603673	0	0	0
142	1	1	0.0	0.0	122.24355652982116	0	0	0
143	1	1	0.0	-0.49999999999999994	123.1095819336056	0	0	0
144	1	1	0.0	0.0	123.97560733739003	0	0	0
145	1	1	0.0	-0.49999999999999994	124.84163274117446	0	0	0
146	1	1	0.0	0.0	125.7076581449589	0	0	0
147	1	1	0.0	-0.49999999999999994	126.57368354874333	0	0	0
148	1	1	0.0	0.0	127.43970895252777	0	0	0
149	1	1	0.0	-0.49999999999999994	128.3057343563122	0	0	0
150	1	1	0.0	0.0	129.17175976009665	0	0	0
151	1	1	0.0	-0.49999999999999994	130.0377851638811	0	0	0
152	1	1	0.0	0.0	130.90381056766554	0	0	0
153	1	1	0.0	-0.49999999999999994	131.76983597145	0	0	0
154	1	1	0.0	0.0	132.63586137523444	0	0	0
155	1	1	0.0	-0.49999999999999994	133.5018867790189	0	0	0
156	1	1	0.0	0.0	134.36791218280334	0	0	0
157	1	1	0.0	-0.49999999999999994	135.23393758658779	0	0	0
158	1	1	0.0	0.0	136.09996299037223	0	0	0
159	1	1	0.0	-0.49999999999999994	136.96598839415668	0	0	0
160	1	1	0.0	0.0	137.83201379794113	0	0	0
161	1	1	0.0	-0.49999999999999994	138.69803920172558	0	0	0
162	1	1	0.0	0.0	139.56406460551003	0	0	0
163	1	1	0.0	-0.49999999999999994	140.43009000929447	0	0	0
164	1	1	0.0	0.0	141.29611541307892	0	0	0
165	1	1	0.0	-0.49999999999999994	142.16214081686337	0	0	0
166	1	1	0.0	0.0	143.02816622064782	0	0	0
167	1	1	0.0	-0.49999999999999994	143.89419162443227	0	0	0
168	1	1	0.0	0.0	144.76021702821672	0	0	0
169	1	1	0.0	-0.49999999999999994	145.62624243200116	0	0	0
170	1	1	0.0	0.0	146.4922678357856	0	0	0
171	1	1	0.0	-0.49999999999999994	147.35829323957006	0	0	0
172	1	1	0.0	0.0	148.2243186433545	0	0	0
173	1	1	0.0	-0.49999999999999994	149.09034404713896	0	0	0
174	1	1	0.0	0.0	149.9563694509234	0	0	0
175	1	1	0.0	-0.49999999999999994	150.82239485470785	0	0	0
176	1	1	0.0	0.0	151.6884202584923	0	0	0
177	1	1	0.0	-0.49999999999999994	152.55444566227675	0	0	0
178	1	1	0.0	0.0	153.4204710660612	0	0	0
179	1	1	0.0	-0.49999999999999994	154.28649646984564	0	0	0
180	1	1	0.0	0.0	155.1525218736301	0	0	0
181	1	1	0.0	-0.49999999999999994	156.01854727741454	0	0	0
182	1	1	0.0	0.0	156.884572681199	0	0	0
183	1	1	0.0	-0.49999999999999994	157.75059808498344	0	0	0
184	1	1	0.0	0.0	158.61662348876789	0	0	0
185	1	1	0.0	-0.49999999999999994	159.48264889255233	0	0	0
186	1	1	0.0	0.0	160.34867429633678	0	0	0
187	1	1	0.0	-0.49999999999999994	161.21469970012123	0	0	0
188	1	1	0.0	0.0	162.08072510390568	0	0	0
189	1	1	0.0	-0.49999999999999994	162.94675050769013	0	0	0
190	1	1	0.0	0.0	163.81277591147457	0	0	0
191	1	1	0.0	-0.49999999999999994	164.67880131525902	0	0	0
192	1	1	0.0	0.0	165.54482671904347	0	0	0
193	1	1	0.0	-0.49999999999999994	166.41085212282792	0	0	0
194	1	1	0.0	0.0	167.27687752661237	0	0	0
195	1	1	0.0	-0.49999999999999994	168.14290293039682	0	0	0
196	1	1	0.0	0.0	169.00892833418126	0	0	0
197	1	1	0.0	-0.49999999999999994	169.8749537379657	0	0	0
198	1	1	0.0	0.0	170.74097914175016	0	0	0
199	1	1	0.0	-0.49999999999999994	171.6070045455346	0	0	0
200	1	1	0.0	0.0	172.47302994931906	0	0	0
201	1	1	0.0	-0.49999999999999994	173.3390553531035	0	0	0
202	1	1	0.0	0.0	174.20508075688795	0	0	0
203	1	1	0.0	-0.49999999999999994	175.0711061606724	0	0	0
204	1	1	0.0	0.0	175.93713156445685	0	0	0
205	1	1	0.0	-0.49999999999999994	176.8031569682413	0	0	0
206	1	1	0.0	0.0	177.66918237202574	0	0	0
207	1	1	0.0	-0.49999999999999994	178.5352077758102	0	0	0
208	1	1	0.0	0.0	179.40123317959464	0	0	0
209	1	1	0.0	-0.49999999999999994	180.2672585833791	0	0	0
210	1	1	0.0	0.0	181.13328398716354	0	0	0
211	1	1	0.0	-0.49999999999999994	181.99930939094799	0	0	0
212	1	1	0.0	0.0	182.86533479473243	0	0	0
213	1	1	0.0	-0.49999999999999994	183.73136019851688	0	0	0
214	1	1	0.0	0.0	184.59738560230133	0	0	0
215	1	1	0.0	-0.49999999999999994	185.46341100608578	0	0	0
216	1	1	0.0	0.0	186.32943640987023	0	0	0
217	1	1	0.0	-0.49999999999999994	187.19546181365467	0	0	0
218	1	1	0.0	0.0	188.06148721743912	0	0	0
219	1	1	0.0	-0.49999999999999994	188.92751262122357	0	0	0
220	1	1	0.0	0.0	189.79353802500802	0	0	0
221	1	1	0.0	-0.49999999999999994	190.65956342879247	0	0	0
222	1	1	0.0	0.0	191.52558883257691	0	0	0
223	1	1	0.0	-0.49999999999999994	192.39161423636136	0	0	0
224	1	1	0.0	0.0	193.2576396401458	0	0	0
225	1	1	0.0	-0.49999999999999994	194.12366504393026	0	0	0
226	1	1	0.0	0.0	194.9896904477147	0	0	0
227	1	1	0.0	-0.49999999999999994	195.85571585149916	0	0	0
228	1	1	0.0	0.0	196.7217412552836	0	0	0
229	1	1	0.0	-0.49999999999999994	197.58776665906805	0	0	0
230	1	1	0.0	0.0	198.4537920628525	0	0	0
231	1	1	0.0	-0.49999999999999994	199.31981746663695	0	0	0
232	1	1	0.0	0.0	200.1858428704214	0	0	0
233	1	1	0.0	-0.49999999999999994	201.05186827420584	0	0	0
234	1	1	0.0	0.0	201.9178936779903	0	0	0
235	1	1	0.0	-0.49999999999999994	202.78391908177474	0	0	0
236	1	1	0.0	0.0	203.6499444855592	0	0	0
237	1	1	0.0	-0.49999999999999994	204.51596988934364	0	0	0
238	1	1	0.0	0.0	205.38199529312809	0	0	0
239	1	1	0.0	-0.49999999999999994	206.24802069691253	0	0	0
240	1	1	0.0	0.0	207.11404610069698	0	0	0
241	1	1	0.0	-0.49999999999999994	207.98007150448143	0	0	0
242	1	1	0.0	0.0	208.84609690826588	0	0	0
243	1	1	0.0	-0.49999999999999994	209.71212231205033	0	0	0
244	1	1	0.0	0.0	210.57814771583477	0	0	0
245	1	1	0.0	-0.49999999999999994	211.44417311961922	0	0	0
246	1	1	0.0	0.0	212.31019852340367	0	0	0
247	1	1	0.0	-0.49999999999999994	213.17622392718812	0	0	0
248	1	1	0.0	0.0	214.04224933097257	0	0	0
249	1	1	0.0	-0.49999999999999994	214.90827473475701	0	0	0
250	1	1	0.0	0.0	215.77430013854146	0	0	0
251	1	1	0.0	-0.49999999999999994	216.6403255423259	0	0	0
252	1	1	0.0	0.0	217.50635094611036	0	0	0
253	1	1	0.0	-0.49999999999999994	218.3723763498948	0	0	0
254	1	1	0.0	0.0	219.23840175367926	0	0	0
255	1	1	0.0	-0.49999999999999994	220.1044271574637	0	0	0
256	1	1	0.0	0.0	220.97045256124815	0	0	0
257	1	1	0.0	-0.49999999999999994	221.8364779650326	0	0	0
258	1	1	0.0	0.0	222.70250336881705	0	0	0
259	1	1	0.0	-0.49999999999999994	223.5685287726015	0	0	0
260	1	1	0.0	0.0	224.43455417638594	0	0	0
261	1	1	0.0	-0.49999999999999994	225.3005795801704	0	0	0
262	1	1	0.0	0.0	226.16660498395484	0	0	0
263	1	1	0.0	-0.49999999999999994	227.0326303877393	0	0	0
264	1	1	0.0	0.0	227.89865579152374	0	0	0
265	1	1	0.0	-0.49999999999999994	228.76468119530819	0	0	0
266	1	1	0.0	0.0	229.63070659909263	0	0	0
267	1	1	0.0	-0.49999999999999994	230.49673200287708	0	0	0
268	1	1	-0.84497087553502	-0.5856279688536332	231.02464494119891	0	0	0
269	1	1	-1.689941751070033	-0.9237404343162597	231.43901697234529	0	0	0
270	1	1	-2.534912626605046	-0.7339399614570501	231.93901697234529	0	0	0
271	1	1	-3.379883502140059	-1.0720524269196767	232.35338900349166	0	0	0
272	1	1	-4.224854377675072	-0.8822519540604671	232.85338900349166	0	0	0
273	1	1	-5.069825253210086	-1.2203644195230936	233.26776103463803	0	0	0
274	1	1	-5.914796128745099	-1.030563946663884	233.76776103463803	0	0	0
275	1	1	-6.759767004280112	-1.3686764121265105	234.1821330657844	0	0	0
276	1	1	-7.604737879815126	-1.178875939267301	234.6821330657844	0	0	0
277	1	1	-8.449708755350139	-1.5169884047299274	235.09650509693077	0	0	0
278	1	1	-9.294679630885152	-1.3271879318707178	235.59650509693077	0	0	0
279	1	1	-10.139650506420166	-1.6653003973333442	236.01087712807714	0	0	0
280	1	1	-10.98462138195518	-1.4754999244741347	236.51087712807714	0	0	0
281	1	1	-11.829592257490193	-1.813612389936761	236.9252491592235	0	0	0
282	1	1	-12.674563133025206	-1.6238119170775516	237.4252491592235	0	0	0
283	1	1	-13.51953400856022	-1.961924382540178	237.83962119036988	0	0	0
284	1	1	-14.364504884095233	-1.7721239096809684	238.33962119036988	0	0	0
285	1	1	-15.209475759630246	-2.110236375143595	238.75399322151625	0	0	0
286	1	1	-16.05444663516526	-1.9204359022843853	239.25399322151625	0	0	0
287	1	1	-16.89941751070027	-2.2585483677470117	239.66836525266262	0	0	0
288	1	1	-17.744388386235283	-2.068747894887802	240.16836525266262	0	0	0
289	1	1	-18.589359261770294	-2.4068603603504286	240.582737283809	0	0	0
290	1	1	-19.434330137305306	-2.217059887491219	241.082737283809	0	0	0
291	1	1	-20.279301012840317	-2.5551723529538455	241.49710931495537	0	0	0
292	1	1	-21.12427188837533	-2.365371880094636	241.99710931495537	0	0	0
293	1	1	-21.96924276391034	-2.7034843455572624	242.41148134610174	0	0	0
294	1	1	-22.814213639445352	-2.513683872698053	242.91148134610174	0	0	0
295	1	1	-23.659184514980364	-2.8517963381606792	243.3258533772481	0	0	0
296	1	1	-24.504155390515376	-2.6619958653014697	243.8258533772481	0	0	0
297	1	1	-25.349126266050387	-3.000108330764096	244.24022540839448	0	0	0
298	1	1	-26.1940971415854	-2.8103078579048866	244.74022540839448	0	0	0
299	1	1	-27.03906801712041	-3.148420323367513	245.15459743954085	0	0	0
300	1	1	-27.884038892655422	-2.9586198505083035	245.65459743954085	0	0	0
301	1	1	-28.729009768190434	-3.29673231597093	246.06896947068722	0	0	0
302	1	1	-29.573980643725445	-3.1069318431117203	246.56896947068722	0	0	0
303	1	1	-30.418951519260457	-3.4450443085743467	246.9833415018336	0	0	0
304	1	1	-31.26392239479547	-3.255243835715137	247.4833415018336	0	0	0
305	1	1	-32.10889327033048	-3.5933563011777636	247.89771353297996	0	0	0
306	1	1	-32.953864145865495	-3.403555828318554	248.39771353297996	0	0	0
307	1	1	-33.79883502140051	-3.7416682937811805	248.81208556412633	0	0	0
308	1	1	-34.64380589693552	-3.551867820921971	249.31208556412633	0	0	0
309	1	1	-35.48877677247053	-3.8899802863845974	249.7264575952727	0	0	0
310	1	1	-36.33374764800554	-3.700179813525388	250.2264575952727	0	0	0
311	1	1	-37.17871852354055	-4.038292278988014	250.64082962641908	0	0	0
312	1	1	-38.023689399075565	-3.8484918061288047	251.14082962641908	0	0	0
313	1	1	-38.868660274610576	-4.186604271591431	251.55520165756545	0	0	0
314	1	1	-39.71363115014559	-3.9968037987322216	252.05520165756545	0	0	0
315	1	1	-40.5586020256806	-4.334916264194848	252.46957368871182	0	0	0
316	1	1	-41.40357290121561	-4.1451157913356385	252.96957368871182	0	0	0
317	1	1	-42.24854377675062	-4.483228256798265	253.3839457198582	0	0	0
318	1	1	-43.093514652285634	-4.293427783939055	253.8839457198582	0	0	0
319	1	1	-43.938485527820646	-4.631540249401682	254.29831775100456	0	0	0
320	1	1	-44.78345640335566	-4.441739776542472	254.79831775100456	0	0	0
321	1	1	-45.62842727889067	-4.779852242005099	255.21268978215093	0	0	0
322	1	1	-46.47339815442568	-4.590051769145889	255.71268978215093	0	0	0
323	1	1	-47.31836902996069	-4.9281642346085155	256.1270618132973	0	0	0
324	1	1	-48.163339905495704	-4.738363761749306	256.6270618132973	0	0	0
325	1	1	-49.008310781030715	-5.076476227211932	257.0414338444437	0	0	0
326	1	1	-49.85328165656573	-4.886675754352723	257.5414338444437	0	0	0
327	1	1	-50.69825253210074	-5.224788219815349	257.9558058755901	0	0	0
328	1	1	-51.54322340763575	-5.03498774695614	258.4558058755901	0	0	0
329	1	1	-52.38819428317076	-5.373100212418766	258.8701779067365	0	0	0
330	1	1	-53.23316515870577	-5.183299739559557	259.3701779067365	0	0	0
331	1	1	-54.078136034240785	-5.521412205022183	259.7845499378829	0	0	0
332	1	1	-54.9231069097758	-5.3316117321629735	260.2845499378829	0	0	0
333	1	1	-55.76807778531081	-5.6697241976256	260.6989219690293	0	0	0
334	1	1	-56.61304866084582	-5.47992372476639	261.1989219690293	0	0	0
335	1	1	-57.45801953638083	-5.818036190229017	261.6132940001757	0	0	0
336	1	1	-58.30299041191584	-5.628235717369807	262.1132940001757	0	0	0
337	1	1	-59.147961287450855	-5.966348182832434	262.5276660313221	0	0	0
338	1	1	-59.992932162985866	-5.776547709973224	263.0276660313221	0	0	0
339	1	1	-60.83790303852088	-6.1146601754358505	263.4420380624685	0	0	0
340	1	1	-61.68287391405589	-5.924859702576641	263.9420380624685	0	0	0
341	1	1	-62.5278447895909	-6.262972168039267	264.3564100936149	0	0	0
342	1	1	-63.37281566512591	-6.073171695180058	264.8564100936149	0	0	0
343	1	1	-64.21778654066092	-6.411284160642684	265.2707821247613	0	0	0
344	1	1	-65.06275741619594	-6.221483687783475	265.7707821247613	0	0	0
345	1	1	-65.90772829173095	-6.559596153246101	266.1851541559077	0	0	0
346	1	1	-66.75269916726596	-6.369795680386892	266.6851541559077	0	0	0
347	1	1	-67.59767004280097	-6.707908145849518	267.0995261870541	0	0	0
348	1	1	-68.44264091833598	-6.5181076729903085	267.5995261870541	0	0	0
349	1	1	-69.287611793871	-6.856220138452935	268.0138982182005	0	0	0
350	1	1	-70.132582669406	-6.666419665593725	268.5138982182005	0	0	0
351	1	1	-70.97755354494102	-7.004532131056352	268.9282702493469	0	0	0
352	1	1	-71.82252442047603	-6.814731658197142	269.4282702493469	0	0	0
353	1	1	-72.66749529601104	-7.152844123659769	269.8426422804933	0	0	0
354	1	1	-73.51246617154605	-6.963043650800559	270.3426422804933	0	0	0
355	1	1	-74.35743704708106	-7.3011561162631855	270.7570143116397	0	0	0
356	1	1	-75.20240792261608	-7.111355643403976	271.2570143116397	0	0	0
357	1	1	-76.04737879815109	-7.449468108866602	271.6713863427861	0	0	0
358	1	1	-76.8923496736861	-7.259667636007393	272.1713863427861	0	0	0
359	1	1	-77.73732054922111	-7.597780101470019	272.5857583739325	0	0	0
360	1	1	-78.58229142475612	-7.40797962861081	273.0857583739325	0	0	0
361	1	1	-79.42726230029113	-7.746092094073436	273.5001304050789	0	0	0
362	1	1	-80.27223317582614	-7.556291621214227	274.0001304050789	0	0	0
363	1	1	-81.11720405136116	-7.894404086676853	274.4145024362253	0	0	0
364	1	1	-81.96217492689617	-7.7046036138176435	274.9145024362253	0	0	0
365	1	1	-82.80714580243118	-8.04271607928027	275.3288744673717	0	0	0
366	1	1	-83.65211667796619	-7.85291560642106	275.8288744673717	0	0	0
367	1	1	-84.4970875535012	-8.191028071883688	276.2432464985181	0	0	0
368	1	1	-85.34205842903621	-8.001227599024478	276.7432464985181	0	0	0
369	1	1	-86.18702930457123	-8.339340064487105	277.1576185296645	0	0	0
370	1	1	-87.03200018010624	-8.149539591627896	277.6576185296645	0	0	0
371	1	1	-87.87697105564125	-8.487652057090523	278.0719905608109	0	0	0
372	1	1	-88.72194193117626	-8.297851584231314	278.5719905608109	0	0	0
373	1	1	-89.56691280671127	-8.635964049693941	278.9863625919573	0	0	0
374	1	1	-90.41188368224628	-8.446163576834731	279.4863625919573	0	0	0
375	1	1	-91.2568545577813	-8.784276042297359	279.9007346231037	0	0	0
376	1	1	-92.10182543331631	-8.59447556943815	280.4007346231037	0	0	0
377	1	1	-92.94679630885132	-8.932588034900776	280.8151066542501	0	0	0
378	1	1	-93.79176718438633	-8.742787562041567	281.3151066542501	0	0	0
379	1	1	-94.63673805992134	-9.080900027504194	281.7294786853965	0	0	0
380	1	1	-95.48170893545635	-8.891099554644985	282.2294786853965	0	0	0
381	1	1	-96.32667981099137	-9.229212020107612	282.6438507165429	0	0	0
382	1	1	-97.17165068652638	-9.039411547248402	283.1438507165429	0	0	0
383	1	1	-98.01662156206139	-9.37752401271103	283.5582227476893	0	0	0
384	1	1	-98.8615924375964	-9.18772353985182	284.0582227476893	0	0	0
385	1	1	-99.70656331313141	-9.525836005314448	284.4725947788357	0	0	0
386	1	1	-100.55153418866642	-9.336035532455238	284.9725947788357	0	0	0
387	1	1	-101.39650506420143	-9.674147997917865	285.3869668099821	0	0	0
388	1	1	-102.24147593973645	-9.484347525058656	285.8869668099821	0	0	0
389	1	1	-103.08644681527146	-9.822459990521283	286.3013388411285	0	0	0
390	1	1	-103.93141769080647	-9.632659517662074	286.8013388411285	0	0	0
391	1	1	-104.77638856634148	-9.9707719831247	287.2157108722749	0	0	0
392	1	1	-105.62135944187649	-9.780971510265491	287.7157108722749	0	0	0
393	1	1	-106.4663303174115	-10.119083975728119	288.1300829034213	0	0	0
394	1	1	-107.31130119294652	-9.929283502868909	288.6300829034213	0	0	0
395	1	1	-108.15627206848153	-10.267395968331536	289.0444549345677	0	0	0
396	1	1	-109.00124294401654	-10.077595495472327	289.5444549345677	0	0	0
397	1	1	-109.84621381955155	-10.415707960934954	289.9588269657141	0	0	0
398	1	1	-110.69118469508656	-10.225907488075745	290.4588269657141	0	0	0
399	1	1	-111.53615557062157	-10.564019953538372	290.8731989968605	0	0	0
400	1	1	-112.38112644615659	-10.374219480679162	291.3731989968605	0	0	0
401	1	1	-113.2260973216916	-10.71233194614179	291.7875710280069	0	0	0
402	1	1	-114.07106819722661	-10.52253147328258	292.2875710280069	0	0	0
403	1	1	-114.91603907276162	-10.860643938745207	292.7019430591533	0	0	0
404	1	1	-115.76100994829663	-10.670843465885998	293.2019430591533	0	0	0
405	1	1	-116.60598082383164	-11.008955931348625	293.6163150902997	0	0	0
406	1	1	-117.45095169936666	-10.819155458489416	294.1163150902997	0	0	0
407	1	1	-118.29592257490167	-11.157267923952043	294.5306871214461	0	0	0
408	1	1	-119.14089345043668	-10.967467451092833	295.0306871214461	0	0	0
409	1	1	-119.98586432597169	-11.30557991655546	295.4450591525925	0	0	0
410	1	1	-120.8308352015067	-11.115779443696251	295.9450591525925	0	0	0
411	1	1	-121.67580607704171	-11.453891909158878	296.3594311837389	0	0	0
412	1	1	-122.52077695257672	-11.264091436299669	296.8594311837389	0	0	0
413	1	1	-123.36574782811174	-11.602203901762296	297.2738032148853	0	0	0
414	1	1	-124.21071870364675	-11.412403428903087	297.7738032148853	0	0	0
415	1	1	-125.05568957918176	-11.750515894365714	298.1881752460317	0	0	0
416	1	1	-125.90066045471677	-11.560715421506504	298.6881752460317	0	0	0
417	1	1	-126.74563133025178	-11.898827886969132	299.1025472771781	0	0	0
418	1	1	-127.5906022057868	-11.709027414109922	299.6025472771781	0	0	0
419	1	1	-128.43557308132182	-12.04713987957255	300.0169193083245	0	0	0
420	1	1	-129.28054395685683	-11.85733940671334	300.5169193083245	0	0	0
421	1	1	-130.12551483239184	-12.195451872175967	300.9312913394709	0	0	0
422	1	1	-130.97048570792685	-12.005651399316758	301.4312913394709	0	0	0
423	1	1	-131.81545658346187	-12.343763864779385	301.8456633706173	0	0	0
424	1	1	-132.66042745899688	-12.153963391920175	302.3456633706173	0	0	0
425	1	1	-133.5053983345319	-12.492075857382803	302.7600354017637	0	0	0
426	1	1	-134.3503692100669	-12.302275384523593	303.2600354017637	0	0	0
427	1	1	-135.1953400856019	-12.64038784998622	303.6744074329101	0	0	0
428	1	1	-136.04031096113692	-12.450587377127011	304.1744074329101	0	0	0
429	1	1	-136.88528183667194	-12.788699842589638	304.5887794640565	0	0	0
430	1	1	-137.73025271220695	-12.598899369730429	305.0887794640565	0	0	0
431	1	1	-138.57522358774196	-12.937011835193056	305.50315149520287	0	0	0
432	1	1	-139.42019446327697	-12.747211362333847	306.00315149520287	0	0	0
433	1	1	-140.26516533881198	-13.085323827796474	306.41752352634927	0	0	0
434	1	1	-141.110136214347	-12.895523354937264	306.91752352634927	0	0	0
435	1	1	-141.955107089882	-13.233635820399892	307.33189555749567	0	0	0
436	1	1	-142.80007796541702	-13.043835347540682	307.83189555749567	0	0	0
437	1	1	-143.64504884095203	-13.38194781300331	308.24626758864207	0	0	0
438	1	1	-144.49001971648704	-13.1921473401441	308.74626758864207	0	0	0
439	1	1	-145.33499059202205	-13.530259805606727	309.16063961978847	0	0	0
440	1	1	-146.17996146755706	-13.340459332747518	309.66063961978847	0	0	0
441	1	1	-147.02493234309208	-13.678571798210145	310.07501165093487	0	0	0
442	1	1	-147.8699032186271	-13.488771325350935	310.57501165093487	0	0	0
443	1	1	-148.7148740941621	-13.826883790813563	310.98938368208127	0	0	0
444	1	1	-149.5598449696971	-13.637083317954353	311.48938368208127	0	0	0
445	1	1	-150.40481584523212	-13.97519578341698	311.90375571322767	0	0	0
446	1	1	-151.24978672076713	-13.785395310557771	312.40375571322767	0	0	0
447	1	1	-152.09475759630214	-14.123507776020398	312.81812774437407	0	0	0
448	1	1	-152.93972847183716	-13.933707303161189	313.31812774437407	0	0	0
449	1	1	-153.78469934737217	-14.271819768623816	313.73249977552047	0	0	0
450	1	1	-154.62967022290718	-14.082019295764606	314.23249977552047	0	0	0
451	1	1	-155.4746410984422	-14.420131761227234	314.64687180666687	0	0	0
452	1	1	-156.3196119739772	-14.230331288368024	315.14687180666687	0	0	0
453	1	1	-157.16458284951221	-14.568443753830651	315.56124383781327	0	0	0
454	1	1	-158.00955372504723	-14.378643280971442	316.06124383781327	0	0	0
455	1	1	-158.85452460058224	-14.71675574643407	316.47561586895966	0	0	0
456	1	1	-159.69949547611725	-14.52695527357486	316.97561586895966	0	0	0
457	1	1	-160.54446635165226	-14.865067739037487	317.38998790010606	0	0	0
458	1	1	-161.38943722718727	-14.675267266178277	317.88998790010606	0	0	0
459	1	1	-162.23440810272228	-15.013379731640905	318.30435993125246	0	0	0
460	1	1	-163.0793789782573	-14.823579258781695	318.80435993125246	0	0	0
461	1	1	-163.9243498537923	-15.161691724244323	319.21873196239886	0	0	0
462	1	1	-164.76932072932732	-14.971891251385113	319.71873196239886	0	0	0
463	1	1	-165.61429160486233	-15.31000371684774	320.13310399354526	0	0	0
464	1	1	-166.45926248039734	-15.12020324398853	320.63310399354526	0	0	0
465	1	1	-167.30423335593235	-15.458315709451158	321.04747602469166	0	0	0
466	1	1	-168.14920423146737	-15.268515236591949	321.54747602469166	0	0	0
467	1	1	-168.99417510700238	-15.606627702054576	321.96184805583806	0	0	0
468	1	1	-169.8391459825374	-15.416827229195366	322.46184805583806	0	0	0
469	1	1	-170.6841168580724	-15.754939694657994	322.87622008698446	0	0	0
470	1	1	-171.5290877336074	-15.565139221798784	323.37622008698446	0	0	0
471	1	1	-172.37405860914242	-15.903251687261411	323.79059211813086	0	0	0
472	1	1	-173.21902948467743	-15.713451214402202	324.29059211813086	0	0	0
473	1	1	-174.06400036021245	-16.051563679864827	324.70496414927726	0	0	0
474	1	1	-174.90897123574746	-15.861763207005618	325.20496414927726	0	0	0
475	1	1	-175.75394211128247	-16.199875672468245	325.61933618042366	0	0	0
476	1	1	-176.59891298681748	-16.010075199609034	326.11933618042366	0	0	0
477	1	1	-177.4438838623525	-16.34818766507166	326.53370821157006	0	0	0
478	1	1	-178.2888547378875	-16.158387192212448	327.03370821157006	0	0	0
479	1	1	-179.13382561342252	-16.496499657675074	327.44808024271646	0	0	0
480	1	1	-179.97879648895753	-16.306699184815862	327.94808024271646	0	0	0
481	1	1	-180.82376736449254	-16.644811650278488	328.36245227386286	0	0	0
482	1	1	-181.66873824002755	-16.455011177419276	328.86245227386286	0	0	0
483	1	1	-182.51370911556256	-16.793123642881902	329.27682430500926	0	0	0
484	1	1	-183.35867999109757	-16.60332317002269	329.77682430500926	0	0	0
485	1	1	-184.2036508666326	-16.941435635485316	330.19119633615566	0	0	0
486	1	1	-185.0486217421676	-16.751635162626105	330.69119633615566	0	0	0
487	1	1	-185.8935926177026	-17.08974762808873	331.10556836730206	0	0	0
488	1	1	-186.73856349323762	-16.89994715522952	331.60556836730206	0	0	0
489	1	1	-187.58353436877263	-17.238059620692145	332.01994039844845	0	0	0
490	1	1	-188.42850524430764	-17.048259147832933	332.51994039844845	0	0	0
491	1	1	-189.27347611984266	-17.38637161329556	332.93431242959485	0	0	0
492	1	1	-190.11844699537767	-17.196571140436347	333.43431242959485	0	0	0
493	1	1	-190.96341787091268	-17.534683605898973	333.84868446074125	0	0	0
494	1	1	-191.8083887464477	-17.34488313303976	334.34868446074125	0	0	0
495	1	1	-192.6533596219827	-17.682995598502387	334.76305649188765	0	0	0
496	1	1	-193.4983304975177	-17.493195125643176	335.26305649188765	0	0	0
497	1	1	-194.34330137305273	-17.8313075911058	335.67742852303405	0	0	0
498	1	1	-195.18827224858774	-17.64150711824659	336.17742852303405	0	0	0
499	1	1	-196.03324312412275	-17.979619583709216	336.59180055418045	0	0	0
500	1	1	-196.87821399965776	-17.789819110850004	337.09180055418045	0	0	0
501	1	1	-197.72318487519277	-18.12793157631263	337.50617258532685	0	0	0
502	1	1	-198.56815575072778	-17.93813110345342	338.00617258532685	0	0	0
503	1	1	-199.4131266262628	-18.276243568916044	338.42054461647325	0	0	0