bb66nuc1bl33bn3d30tot100

100 atoms
99 bonds
99 angles

1 atom types
1 bond types
1 angle types

-1000 1000 xlo xhi
-1000 1000 ylo yhi
-1000 1000 zlo zhi

Masses

1 1

Atoms

1	1	1	0.0	0.0	0.0	0	0	0
2	1	1	0.0	0.0	1.0	0	0	0
3	1	1	0.0	-0.49999999999999994	1.8660254037844388	0	0	0
4	1	1	0.0	0.0	2.7320508075688776	0	0	0
5	1	1	0.0	-0.49999999999999994	3.5980762113533165	0	0	0
6	1	1	0.0	0.0	4.464101615137755	0	0	0
7	1	1	0.0	-0.49999999999999994	5.330127018922194	0	0	0
8	1	1	0.0	0.0	6.196152422706632	0	0	0
9	1	1	0.0	-0.49999999999999994	7.06217782649107	0	0	0
10	1	1	0.0	0.0	7.928203230275509	0	0	0
11	1	1	0.0	-0.49999999999999994	8.794228634059948	0	0	0
12	1	1	0.0	0.0	9.660254037844387	0	0	0
13	1	1	0.0	-0.49999999999999994	10.526279441628827	0	0	0
14	1	1	0.0	0.0	11.392304845413266	0	0	0
15	1	1	0.0	-0.49999999999999994	12.258330249197705	0	0	0
16	1	1	0.0	0.0	13.124355652982144	0	0	0
17	1	1	0.0	-0.49999999999999994	13.990381056766584	0	0	0
18	1	1	0.0	0.0	14.856406460551023	0	0	0
19	1	1	0.0	-0.49999999999999994	15.722431864335462	0	0	0
20	1	1	0.0	0.0	16.5884572681199	0	0	0
21	1	1	0.0	-0.49999999999999994	17.454482671904337	0	0	0
22	1	1	0.0	0.0	18.320508075688775	0	0	0
23	1	1	0.0	-0.49999999999999994	19.186533479473212	0	0	0
24	1	1	0.0	0.0	20.05255888325765	0	0	0
25	1	1	0.0	-0.49999999999999994	20.918584287042087	0	0	0
26	1	1	0.0	0.0	21.784609690826525	0	0	0
27	1	1	0.0	-0.49999999999999994	22.650635094610962	0	0	0
28	1	1	0.0	0.0	23.5166604983954	0	0	0
29	1	1	0.0	-0.49999999999999994	24.382685902179837	0	0	0
30	1	1	0.0	0.0	25.248711305964274	0	0	0
31	1	1	0.0	-0.49999999999999994	26.114736709748712	0	0	0
32	1	1	0.0	0.0	26.98076211353315	0	0	0
33	1	1	0.0	-0.49999999999999994	27.846787517317587	0	0	0
34	1	1	0.0	0.0	28.712812921102024	0	0	0
35	1	1	0.8652981198186095	0.2807306504777178	29.12808327366856	0	0	0
36	1	1	1.7305962396372196	0.3162153491290835	29.62808327366856	0	0	0
37	1	1	2.59589435945583	0.7669704003469855	29.847352623190844	0	0	0
38	1	1	3.46119247927444	0.8024550989983512	30.347352623190844	0	0	0
39	1	1	4.3264905990930504	1.2532101502162531	30.566621972713126	0	0	0
40	1	1	5.191788718911661	1.2886948488676189	31.066621972713126	0	0	0
41	1	1	6.057086838730271	1.7394499000855208	31.285891322235408	0	0	0
42	1	1	6.922384958548881	1.7749345987368865	31.785891322235408	0	0	0
43	1	1	7.7876830783674915	2.2256896499547887	32.005160671757686	0	0	0
44	1	1	8.652981198186101	2.2611743486061546	32.505160671757686	0	0	0
45	1	1	9.518279318004712	2.7119293998240566	32.724430021279964	0	0	0
46	1	1	10.383577437823323	2.7474140984754225	33.224430021279964	0	0	0
47	1	1	11.248875557641934	3.1981691496933244	33.44369937080224	0	0	0
48	1	1	12.114173677460546	3.2336538483446904	33.94369937080224	0	0	0
49	1	1	12.979471797279157	3.6844088995625923	34.16296872032452	0	0	0
50	1	1	13.844769917097768	3.7198935982139583	34.66296872032452	0	0	0
51	1	1	14.710068036916379	4.17064864943186	34.8822380698468	0	0	0
52	1	1	15.57536615673499	4.206133348083226	35.3822380698468	0	0	0
53	1	1	16.4406642765536	4.656888399301128	35.60150741936908	0	0	0
54	1	1	17.305962396372212	4.692373097952493	36.10150741936908	0	0	0
55	1	1	18.171260516190824	5.143128149170395	36.320776768891356	0	0	0
56	1	1	19.036558636009435	5.178612847821761	36.820776768891356	0	0	0
57	1	1	19.901856755828046	5.6293678990396625	37.040046118413635	0	0	0
58	1	1	20.767154875646657	5.664852597691028	37.540046118413635	0	0	0
59	1	1	21.63245299546527	6.11560764890893	37.75931546793591	0	0	0
60	1	1	22.49775111528388	6.151092347560295	38.25931546793591	0	0	0
61	1	1	23.36304923510249	6.601847398778197	38.47858481745819	0	0	0
62	1	1	24.2283473549211	6.637332097429563	38.97858481745819	0	0	0
63	1	1	25.093645474739713	7.088087148647465	39.19785416698047	0	0	0
64	1	1	25.958943594558324	7.12357184729883	39.69785416698047	0	0	0
65	1	1	26.824241714376935	7.574326898516732	39.91712351650275	0	0	0
66	1	1	27.689539834195546	7.609811597168098	40.41712351650275	0	0	0
67	1	1	28.554837954014157	8.060566648386	40.63639286602503	0	0	0
68	1	1	-0.8652981198186095	0.21926934952228522	29.163567972319925	0	0	0
69	1	1	-1.7305962396372196	0.1837846508709234	29.663567972319925	0	0	0
70	1	1	-2.59589435945583	0.5990550034374621	29.94429862279764	0	0	0
71	1	1	-3.46119247927444	0.5635703047861003	30.44429862279764	0	0	0
72	1	1	-4.3264905990930504	0.9788406573526389	30.725029273275354	0	0	0
73	1	1	-5.191788718911661	0.9433559587012771	31.225029273275354	0	0	0
74	1	1	-6.057086838730271	1.3586263112678156	31.505759923753068	0	0	0
75	1	1	-6.922384958548881	1.323141612616454	32.00575992375307	0	0	0
76	1	1	-7.7876830783674915	1.7384119651829926	32.28649057423078	0	0	0
77	1	1	-8.652981198186101	1.7029272665316308	32.78649057423078	0	0	0
78	1	1	-9.51827931800471	2.1181976190981695	33.0672212247085	0	0	0
79	1	1	-10.38357743782332	2.0827129204468076	33.5672212247085	0	0	0
80	1	1	-11.248875557641929	2.497983273013346	33.84795187518621	0	0	0
81	1	1	-12.114173677460538	2.4624985743619843	34.34795187518621	0	0	0
82	1	1	-12.979471797279148	2.877768926928523	34.628682525663926	0	0	0
83	1	1	-13.844769917097757	2.842284228277161	35.128682525663926	0	0	0
84	1	1	-14.710068036916367	3.2575545808436996	35.40941317614164	0	0	0
85	1	1	-15.575366156734976	3.2220698821923377	35.90941317614164	0	0	0
86	1	1	-16.440664276553587	3.6373402347588764	36.190143826619355	0	0	0
87	1	1	-17.3059623963722	3.6018555361075144	36.690143826619355	0	0	0
88	1	1	-18.17126051619081	4.0171258886740535	36.97087447709707	0	0	0
89	1	1	-19.03655863600942	3.9816411900226916	37.47087447709707	0	0	0
90	1	1	-19.90185675582803	4.39691154258923	37.751605127574784	0	0	0
91	1	1	-20.767154875646643	4.361426843937868	38.251605127574784	0	0	0
92	1	1	-21.632452995465254	4.776697196504406	38.5323357780525	0	0	0
93	1	1	-22.497751115283865	4.741212497853044	39.0323357780525	0	0	0
94	1	1	-23.363049235102476	5.156482850419582	39.31306642853021	0	0	0
95	1	1	-24.228347354921087	5.12099815176822	39.81306642853021	0	0	0
96	1	1	-25.0936454747397	5.536268504334759	40.09379707900793	0	0	0
97	1	1	-25.95894359455831	5.500783805683397	40.59379707900793	0	0	0
98	1	1	-26.82424171437692	5.916054158249935	40.87452772948564	0	0	0
99	1	1	-27.689539834195532	5.880569459598573	41.37452772948564	0	0	0
100	1	1	-28.554837954014143	6.295839812165111	41.65525837996336	0	0	0

Bonds

1	1	1	2
2	1	2	3
3	1	3	4
4	1	4	5
5	1	5	6
6	1	6	7
7	1	7	8
8	1	8	9
9	1	9	10
10	1	10	11
11	1	11	12
12	1	12	13
13	1	13	14
14	1	14	15
15	1	15	16
16	1	16	17
17	1	17	18
18	1	18	19
19	1	19	20
20	1	20	21
21	1	21	22
22	1	22	23
23	1	23	24
24	1	24	25
25	1	25	26
26	1	26	27
27	1	27	28
28	1	28	29
29	1	29	30
30	1	30	31
31	1	31	32
32	1	32	33
33	1	33	34
34	1	34	35
35	1	34	68
36	1	35	36
37	1	36	37
38	1	37	38
39	1	38	39
40	1	39	40
41	1	40	41
42	1	41	42
43	1	42	43
44	1	43	44
45	1	44	45
46	1	45	46
47	1	46	47
48	1	47	48
49	1	48	49
50	1	49	50
51	1	50	51
52	1	51	52
53	1	52	53
54	1	53	54
55	1	54	55
56	1	55	56
57	1	56	57
58	1	57	58
59	1	58	59
60	1	59	60
61	1	60	61
62	1	61	62
63	1	62	63
64	1	63	64
65	1	64	65
66	1	65	66
67	1	66	67
68	1	68	69
69	1	69	70
70	1	70	71
71	1	71	72
72	1	72	73
73	1	73	74
74	1	74	75
75	1	75	76
76	1	76	77
77	1	77	78
78	1	78	79
79	1	79	80
80	1	80	81
81	1	81	82
82	1	82	83
83	1	83	84
84	1	84	85
85	1	85	86
86	1	86	87
87	1	87	88
88	1	88	89
89	1	89	90
90	1	90	91
91	1	91	92
92	1	92	93
93	1	93	94
94	1	94	95
95	1	95	96
96	1	96	97
97	1	97	98
98	1	98	99
99	1	99	100

Angles

1	1	1	2	3
2	1	2	3	4
3	1	3	4	5
4	1	4	5	6
5	1	5	6	7
6	1	6	7	8
7	1	7	8	9
8	1	8	9	10
9	1	9	10	11
10	1	10	11	12
11	1	11	12	13
12	1	12	13	14
13	1	13	14	15
14	1	14	15	16
15	1	15	16	17
16	1	16	17	18
17	1	17	18	19
18	1	18	19	20
19	1	19	20	21
20	1	20	21	22
21	1	21	22	23
22	1	22	23	24
23	1	23	24	25
24	1	24	25	26
25	1	25	26	27
26	1	26	27	28
27	1	27	28	29
28	1	28	29	30
29	1	29	30	31
30	1	30	31	32
31	1	31	32	33
32	1	32	33	34
33	1	33	34	35
34	1	33	34	68
35	1	34	35	36
36	1	34	68	69
37	1	35	34	68
38	1	35	36	37
39	1	36	37	38
40	1	37	38	39
41	1	38	39	40
42	1	39	40	41
43	1	40	41	42
44	1	41	42	43
45	1	42	43	44
46	1	43	44	45
47	1	44	45	46
48	1	45	46	47
49	1	46	47	48
50	1	47	48	49
51	1	48	49	50
52	1	49	50	51
53	1	50	51	52
54	1	51	52	53
55	1	52	53	54
56	1	53	54	55
57	1	54	55	56
58	1	55	56	57
59	1	56	57	58
60	1	57	58	59
61	1	58	59	60
62	1	59	60	61
63	1	60	61	62
64	1	61	62	63
65	1	62	63	64
66	1	63	64	65
67	1	64	65	66
68	1	65	66	67
69	1	68	69	70
70	1	69	70	71
71	1	70	71	72
72	1	71	72	73
73	1	72	73	74
74	1	73	74	75
75	1	74	75	76
76	1	75	76	77
77	1	76	77	78
78	1	77	78	79
79	1	78	79	80
80	1	79	80	81
81	1	80	81	82
82	1	81	82	83
83	1	82	83	84
84	1	83	84	85
85	1	84	85	86
86	1	85	86	87
87	1	86	87	88
88	1	87	88	89
89	1	88	89	90
90	1	89	90	91
91	1	90	91	92
92	1	91	92	93
93	1	92	93	94
94	1	93	94	95
95	1	94	95	96
96	1	95	96	97
97	1	96	97	98
98	1	97	98	99
99	1	98	99	100
