bb800nuc1bl400bn3d30tot1200

1201 atoms
1200 bonds
1200 angles

1 atom types
1 bond types
1 angle types

-1000 1000 xlo xhi
-1000 1000 ylo yhi
-1000 1000 zlo zhi

Masses

1 1

Atoms

1	1	1	0.0	0.0	0.0	0	0	0
2	1	1	0.0	0.0	1.0	0	0	0
3	1	1	0.0	-0.49999999999999994	1.8660254037844388	0	0	0
4	1	1	0.0	0.0	2.7320508075688776	0	0	0
5	1	1	0.0	-0.49999999999999994	3.5980762113533165	0	0	0
6	1	1	0.0	0.0	4.464101615137755	0	0	0
7	1	1	0.0	-0.49999999999999994	5.330127018922194	0	0	0
8	1	1	0.0	0.0	6.196152422706632	0	0	0
9	1	1	0.0	-0.49999999999999994	7.06217782649107	0	0	0
10	1	1	0.0	0.0	7.928203230275509	0	0	0
11	1	1	0.0	-0.49999999999999994	8.794228634059948	0	0	0
12	1	1	0.0	0.0	9.660254037844387	0	0	0
13	1	1	0.0	-0.49999999999999994	10.526279441628827	0	0	0
14	1	1	0.0	0.0	11.392304845413266	0	0	0
15	1	1	0.0	-0.49999999999999994	12.258330249197705	0	0	0
16	1	1	0.0	0.0	13.124355652982144	0	0	0
17	1	1	0.0	-0.49999999999999994	13.990381056766584	0	0	0
18	1	1	0.0	0.0	14.856406460551023	0	0	0
19	1	1	0.0	-0.49999999999999994	15.722431864335462	0	0	0
20	1	1	0.0	0.0	16.5884572681199	0	0	0
21	1	1	0.0	-0.49999999999999994	17.454482671904337	0	0	0
22	1	1	0.0	0.0	18.320508075688775	0	0	0
23	1	1	0.0	-0.49999999999999994	19.186533479473212	0	0	0
24	1	1	0.0	0.0	20.05255888325765	0	0	0
25	1	1	0.0	-0.49999999999999994	20.918584287042087	0	0	0
26	1	1	0.0	0.0	21.784609690826525	0	0	0
27	1	1	0.0	-0.49999999999999994	22.650635094610962	0	0	0
28	1	1	0.0	0.0	23.5166604983954	0	0	0
29	1	1	0.0	-0.49999999999999994	24.382685902179837	0	0	0
30	1	1	0.0	0.0	25.248711305964274	0	0	0
31	1	1	0.0	-0.49999999999999994	26.114736709748712	0	0	0
32	1	1	0.0	0.0	26.98076211353315	0	0	0
33	1	1	0.0	-0.49999999999999994	27.846787517317587	0	0	0
34	1	1	0.0	0.0	28.712812921102024	0	0	0
35	1	1	0.0	-0.49999999999999994	29.578838324886462	0	0	0
36	1	1	0.0	0.0	30.4448637286709	0	0	0
37	1	1	0.0	-0.49999999999999994	31.310889132455337	0	0	0
38	1	1	0.0	0.0	32.17691453623978	0	0	0
39	1	1	0.0	-0.49999999999999994	33.04293994002422	0	0	0
40	1	1	0.0	0.0	33.90896534380866	0	0	0
41	1	1	0.0	-0.49999999999999994	34.7749907475931	0	0	0
42	1	1	0.0	0.0	35.64101615137754	0	0	0
43	1	1	0.0	-0.49999999999999994	36.50704155516198	0	0	0
44	1	1	0.0	0.0	37.373066958946424	0	0	0
45	1	1	0.0	-0.49999999999999994	38.239092362730865	0	0	0
46	1	1	0.0	0.0	39.105117766515306	0	0	0
47	1	1	0.0	-0.49999999999999994	39.97114317029975	0	0	0
48	1	1	0.0	0.0	40.83716857408419	0	0	0
49	1	1	0.0	-0.49999999999999994	41.70319397786863	0	0	0
50	1	1	0.0	0.0	42.56921938165307	0	0	0
51	1	1	0.0	-0.49999999999999994	43.43524478543751	0	0	0
52	1	1	0.0	0.0	44.30127018922195	0	0	0
53	1	1	0.0	-0.49999999999999994	45.16729559300639	0	0	0
54	1	1	0.0	0.0	46.033320996790835	0	0	0
55	1	1	0.0	-0.49999999999999994	46.899346400575276	0	0	0
56	1	1	0.0	0.0	47.76537180435972	0	0	0
57	1	1	0.0	-0.49999999999999994	48.63139720814416	0	0	0
58	1	1	0.0	0.0	49.4974226119286	0	0	0
59	1	1	0.0	-0.49999999999999994	50.36344801571304	0	0	0
60	1	1	0.0	0.0	51.22947341949748	0	0	0
61	1	1	0.0	-0.49999999999999994	52.09549882328192	0	0	0
62	1	1	0.0	0.0	52.96152422706636	0	0	0
63	1	1	0.0	-0.49999999999999994	53.827549630850804	0	0	0
64	1	1	0.0	0.0	54.693575034635245	0	0	0
65	1	1	0.0	-0.49999999999999994	55.559600438419686	0	0	0
66	1	1	0.0	0.0	56.42562584220413	0	0	0
67	1	1	0.0	-0.49999999999999994	57.29165124598857	0	0	0
68	1	1	0.0	0.0	58.15767664977301	0	0	0
69	1	1	0.0	-0.49999999999999994	59.02370205355745	0	0	0
70	1	1	0.0	0.0	59.88972745734189	0	0	0
71	1	1	0.0	-0.49999999999999994	60.75575286112633	0	0	0
72	1	1	0.0	0.0	61.62177826491077	0	0	0
73	1	1	0.0	-0.49999999999999994	62.487803668695214	0	0	0
74	1	1	0.0	0.0	63.353829072479655	0	0	0
75	1	1	0.0	-0.49999999999999994	64.21985447626409	0	0	0
76	1	1	0.0	0.0	65.08587988004852	0	0	0
77	1	1	0.0	-0.49999999999999994	65.95190528383296	0	0	0
78	1	1	0.0	0.0	66.81793068761739	0	0	0
79	1	1	0.0	-0.49999999999999994	67.68395609140183	0	0	0
80	1	1	0.0	0.0	68.54998149518626	0	0	0
81	1	1	0.0	-0.49999999999999994	69.41600689897069	0	0	0
82	1	1	0.0	0.0	70.28203230275513	0	0	0
83	1	1	0.0	-0.49999999999999994	71.14805770653956	0	0	0
84	1	1	0.0	0.0	72.014083110324	0	0	0
85	1	1	0.0	-0.49999999999999994	72.88010851410843	0	0	0
86	1	1	0.0	0.0	73.74613391789286	0	0	0
87	1	1	0.0	-0.49999999999999994	74.6121593216773	0	0	0
88	1	1	0.0	0.0	75.47818472546173	0	0	0
89	1	1	0.0	-0.49999999999999994	76.34421012924616	0	0	0
90	1	1	0.0	0.0	77.2102355330306	0	0	0
91	1	1	0.0	-0.49999999999999994	78.07626093681503	0	0	0
92	1	1	0.0	0.0	78.94228634059947	0	0	0
93	1	1	0.0	-0.49999999999999994	79.8083117443839	0	0	0
94	1	1	0.0	0.0	80.67433714816833	0	0	0
95	1	1	0.0	-0.49999999999999994	81.54036255195277	0	0	0
96	1	1	0.0	0.0	82.4063879557372	0	0	0
97	1	1	0.0	-0.49999999999999994	83.27241335952164	0	0	0
98	1	1	0.0	0.0	84.13843876330607	0	0	0
99	1	1	0.0	-0.49999999999999994	85.0044641670905	0	0	0
100	1	1	0.0	0.0	85.87048957087494	0	0	0
101	1	1	0.0	-0.49999999999999994	86.73651497465937	0	0	0
102	1	1	0.0	0.0	87.6025403784438	0	0	0
103	1	1	0.0	-0.49999999999999994	88.46856578222824	0	0	0
104	1	1	0.0	0.0	89.33459118601267	0	0	0
105	1	1	0.0	-0.49999999999999994	90.20061658979711	0	0	0
106	1	1	0.0	0.0	91.06664199358154	0	0	0
107	1	1	0.0	-0.49999999999999994	91.93266739736598	0	0	0
108	1	1	0.0	0.0	92.79869280115041	0	0	0
109	1	1	0.0	-0.49999999999999994	93.66471820493484	0	0	0
110	1	1	0.0	0.0	94.53074360871928	0	0	0
111	1	1	0.0	-0.49999999999999994	95.39676901250371	0	0	0
112	1	1	0.0	0.0	96.26279441628814	0	0	0
113	1	1	0.0	-0.49999999999999994	97.12881982007258	0	0	0
114	1	1	0.0	0.0	97.99484522385701	0	0	0
115	1	1	0.0	-0.49999999999999994	98.86087062764145	0	0	0
116	1	1	0.0	0.0	99.72689603142588	0	0	0
117	1	1	0.0	-0.49999999999999994	100.59292143521031	0	0	0
118	1	1	0.0	0.0	101.45894683899475	0	0	0
119	1	1	0.0	-0.49999999999999994	102.32497224277918	0	0	0
120	1	1	0.0	0.0	103.19099764656362	0	0	0
121	1	1	0.0	-0.49999999999999994	104.05702305034805	0	0	0
122	1	1	0.0	0.0	104.92304845413248	0	0	0
123	1	1	0.0	-0.49999999999999994	105.78907385791692	0	0	0
124	1	1	0.0	0.0	106.65509926170135	0	0	0
125	1	1	0.0	-0.49999999999999994	107.52112466548579	0	0	0
126	1	1	0.0	0.0	108.38715006927022	0	0	0
127	1	1	0.0	-0.49999999999999994	109.25317547305465	0	0	0
128	1	1	0.0	0.0	110.11920087683909	0	0	0
129	1	1	0.0	-0.49999999999999994	110.98522628062352	0	0	0
130	1	1	0.0	0.0	111.85125168440796	0	0	0
131	1	1	0.0	-0.49999999999999994	112.71727708819239	0	0	0
132	1	1	0.0	0.0	113.58330249197682	0	0	0
133	1	1	0.0	-0.49999999999999994	114.44932789576126	0	0	0
134	1	1	0.0	0.0	115.31535329954569	0	0	0
135	1	1	0.0	-0.49999999999999994	116.18137870333013	0	0	0
136	1	1	0.0	0.0	117.04740410711456	0	0	0
137	1	1	0.0	-0.49999999999999994	117.913429510899	0	0	0
138	1	1	0.0	0.0	118.77945491468343	0	0	0
139	1	1	0.0	-0.49999999999999994	119.64548031846786	0	0	0
140	1	1	0.0	0.0	120.5115057222523	0	0	0
141	1	1	0.0	-0.49999999999999994	121.37753112603673	0	0	0
142	1	1	0.0	0.0	122.24355652982116	0	0	0
143	1	1	0.0	-0.49999999999999994	123.1095819336056	0	0	0
144	1	1	0.0	0.0	123.97560733739003	0	0	0
145	1	1	0.0	-0.49999999999999994	124.84163274117446	0	0	0
146	1	1	0.0	0.0	125.7076581449589	0	0	0
147	1	1	0.0	-0.49999999999999994	126.57368354874333	0	0	0
148	1	1	0.0	0.0	127.43970895252777	0	0	0
149	1	1	0.0	-0.49999999999999994	128.3057343563122	0	0	0
150	1	1	0.0	0.0	129.17175976009665	0	0	0
151	1	1	0.0	-0.49999999999999994	130.0377851638811	0	0	0
152	1	1	0.0	0.0	130.90381056766554	0	0	0
153	1	1	0.0	-0.49999999999999994	131.76983597145	0	0	0
154	1	1	0.0	0.0	132.63586137523444	0	0	0
155	1	1	0.0	-0.49999999999999994	133.5018867790189	0	0	0
156	1	1	0.0	0.0	134.36791218280334	0	0	0
157	1	1	0.0	-0.49999999999999994	135.23393758658779	0	0	0
158	1	1	0.0	0.0	136.09996299037223	0	0	0
159	1	1	0.0	-0.49999999999999994	136.96598839415668	0	0	0
160	1	1	0.0	0.0	137.83201379794113	0	0	0
161	1	1	0.0	-0.49999999999999994	138.69803920172558	0	0	0
162	1	1	0.0	0.0	139.56406460551003	0	0	0
163	1	1	0.0	-0.49999999999999994	140.43009000929447	0	0	0
164	1	1	0.0	0.0	141.29611541307892	0	0	0
165	1	1	0.0	-0.49999999999999994	142.16214081686337	0	0	0
166	1	1	0.0	0.0	143.02816622064782	0	0	0
167	1	1	0.0	-0.49999999999999994	143.89419162443227	0	0	0
168	1	1	0.0	0.0	144.76021702821672	0	0	0
169	1	1	0.0	-0.49999999999999994	145.62624243200116	0	0	0
170	1	1	0.0	0.0	146.4922678357856	0	0	0
171	1	1	0.0	-0.49999999999999994	147.35829323957006	0	0	0
172	1	1	0.0	0.0	148.2243186433545	0	0	0
173	1	1	0.0	-0.49999999999999994	149.09034404713896	0	0	0
174	1	1	0.0	0.0	149.9563694509234	0	0	0
175	1	1	0.0	-0.49999999999999994	150.82239485470785	0	0	0
176	1	1	0.0	0.0	151.6884202584923	0	0	0
177	1	1	0.0	-0.49999999999999994	152.55444566227675	0	0	0
178	1	1	0.0	0.0	153.4204710660612	0	0	0
179	1	1	0.0	-0.49999999999999994	154.28649646984564	0	0	0
180	1	1	0.0	0.0	155.1525218736301	0	0	0
181	1	1	0.0	-0.49999999999999994	156.01854727741454	0	0	0
182	1	1	0.0	0.0	156.884572681199	0	0	0
183	1	1	0.0	-0.49999999999999994	157.75059808498344	0	0	0
184	1	1	0.0	0.0	158.61662348876789	0	0	0
185	1	1	0.0	-0.49999999999999994	159.48264889255233	0	0	0
186	1	1	0.0	0.0	160.34867429633678	0	0	0
187	1	1	0.0	-0.49999999999999994	161.21469970012123	0	0	0
188	1	1	0.0	0.0	162.08072510390568	0	0	0
189	1	1	0.0	-0.49999999999999994	162.94675050769013	0	0	0
190	1	1	0.0	0.0	163.81277591147457	0	0	0
191	1	1	0.0	-0.49999999999999994	164.67880131525902	0	0	0
192	1	1	0.0	0.0	165.54482671904347	0	0	0
193	1	1	0.0	-0.49999999999999994	166.41085212282792	0	0	0
194	1	1	0.0	0.0	167.27687752661237	0	0	0
195	1	1	0.0	-0.49999999999999994	168.14290293039682	0	0	0
196	1	1	0.0	0.0	169.00892833418126	0	0	0
197	1	1	0.0	-0.49999999999999994	169.8749537379657	0	0	0
198	1	1	0.0	0.0	170.74097914175016	0	0	0
199	1	1	0.0	-0.49999999999999994	171.6070045455346	0	0	0
200	1	1	0.0	0.0	172.47302994931906	0	0	0
201	1	1	0.0	-0.49999999999999994	173.3390553531035	0	0	0
202	1	1	0.0	0.0	174.20508075688795	0	0	0
203	1	1	0.0	-0.49999999999999994	175.0711061606724	0	0	0
204	1	1	0.0	0.0	175.93713156445685	0	0	0
205	1	1	0.0	-0.49999999999999994	176.8031569682413	0	0	0
206	1	1	0.0	0.0	177.66918237202574	0	0	0
207	1	1	0.0	-0.49999999999999994	178.5352077758102	0	0	0
208	1	1	0.0	0.0	179.40123317959464	0	0	0
209	1	1	0.0	-0.49999999999999994	180.2672585833791	0	0	0
210	1	1	0.0	0.0	181.13328398716354	0	0	0
211	1	1	0.0	-0.49999999999999994	181.99930939094799	0	0	0
212	1	1	0.0	0.0	182.86533479473243	0	0	0
213	1	1	0.0	-0.49999999999999994	183.73136019851688	0	0	0
214	1	1	0.0	0.0	184.59738560230133	0	0	0
215	1	1	0.0	-0.49999999999999994	185.46341100608578	0	0	0
216	1	1	0.0	0.0	186.32943640987023	0	0	0
217	1	1	0.0	-0.49999999999999994	187.19546181365467	0	0	0
218	1	1	0.0	0.0	188.06148721743912	0	0	0
219	1	1	0.0	-0.49999999999999994	188.92751262122357	0	0	0
220	1	1	0.0	0.0	189.79353802500802	0	0	0
221	1	1	0.0	-0.49999999999999994	190.65956342879247	0	0	0
222	1	1	0.0	0.0	191.52558883257691	0	0	0
223	1	1	0.0	-0.49999999999999994	192.39161423636136	0	0	0
224	1	1	0.0	0.0	193.2576396401458	0	0	0
225	1	1	0.0	-0.49999999999999994	194.12366504393026	0	0	0
226	1	1	0.0	0.0	194.9896904477147	0	0	0
227	1	1	0.0	-0.49999999999999994	195.85571585149916	0	0	0
228	1	1	0.0	0.0	196.7217412552836	0	0	0
229	1	1	0.0	-0.49999999999999994	197.58776665906805	0	0	0
230	1	1	0.0	0.0	198.4537920628525	0	0	0
231	1	1	0.0	-0.49999999999999994	199.31981746663695	0	0	0
232	1	1	0.0	0.0	200.1858428704214	0	0	0
233	1	1	0.0	-0.49999999999999994	201.05186827420584	0	0	0
234	1	1	0.0	0.0	201.9178936779903	0	0	0
235	1	1	0.0	-0.49999999999999994	202.78391908177474	0	0	0
236	1	1	0.0	0.0	203.6499444855592	0	0	0
237	1	1	0.0	-0.49999999999999994	204.51596988934364	0	0	0
238	1	1	0.0	0.0	205.38199529312809	0	0	0
239	1	1	0.0	-0.49999999999999994	206.24802069691253	0	0	0
240	1	1	0.0	0.0	207.11404610069698	0	0	0
241	1	1	0.0	-0.49999999999999994	207.98007150448143	0	0	0
242	1	1	0.0	0.0	208.84609690826588	0	0	0
243	1	1	0.0	-0.49999999999999994	209.71212231205033	0	0	0
244	1	1	0.0	0.0	210.57814771583477	0	0	0
245	1	1	0.0	-0.49999999999999994	211.44417311961922	0	0	0
246	1	1	0.0	0.0	212.31019852340367	0	0	0
247	1	1	0.0	-0.49999999999999994	213.17622392718812	0	0	0
248	1	1	0.0	0.0	214.04224933097257	0	0	0
249	1	1	0.0	-0.49999999999999994	214.90827473475701	0	0	0
250	1	1	0.0	0.0	215.77430013854146	0	0	0
251	1	1	0.0	-0.49999999999999994	216.6403255423259	0	0	0
252	1	1	0.0	0.0	217.50635094611036	0	0	0
253	1	1	0.0	-0.49999999999999994	218.3723763498948	0	0	0
254	1	1	0.0	0.0	219.23840175367926	0	0	0
255	1	1	0.0	-0.49999999999999994	220.1044271574637	0	0	0
256	1	1	0.0	0.0	220.97045256124815	0	0	0
257	1	1	0.0	-0.49999999999999994	221.8364779650326	0	0	0
258	1	1	0.0	0.0	222.70250336881705	0	0	0
259	1	1	0.0	-0.49999999999999994	223.5685287726015	0	0	0
260	1	1	0.0	0.0	224.43455417638594	0	0	0
261	1	1	0.0	-0.49999999999999994	225.3005795801704	0	0	0
262	1	1	0.0	0.0	226.16660498395484	0	0	0
263	1	1	0.0	-0.49999999999999994	227.0326303877393	0	0	0
264	1	1	0.0	0.0	227.89865579152374	0	0	0
265	1	1	0.0	-0.49999999999999994	228.76468119530819	0	0	0
266	1	1	0.0	0.0	229.63070659909263	0	0	0
267	1	1	0.0	-0.49999999999999994	230.49673200287708	0	0	0
268	1	1	0.0	0.0	231.36275740666153	0	0	0
269	1	1	0.0	-0.49999999999999994	232.22878281044598	0	0	0
270	1	1	0.0	0.0	233.09480821423043	0	0	0
271	1	1	0.0	-0.49999999999999994	233.96083361801487	0	0	0
272	1	1	0.0	0.0	234.82685902179932	0	0	0
273	1	1	0.0	-0.49999999999999994	235.69288442558377	0	0	0
274	1	1	0.0	0.0	236.55890982936822	0	0	0
275	1	1	0.0	-0.49999999999999994	237.42493523315267	0	0	0
276	1	1	0.0	0.0	238.29096063693711	0	0	0
277	1	1	0.0	-0.49999999999999994	239.15698604072156	0	0	0
278	1	1	0.0	0.0	240.023011444506	0	0	0
279	1	1	0.0	-0.49999999999999994	240.88903684829046	0	0	0
280	1	1	0.0	0.0	241.7550622520749	0	0	0
281	1	1	0.0	-0.49999999999999994	242.62108765585936	0	0	0
282	1	1	0.0	0.0	243.4871130596438	0	0	0
283	1	1	0.0	-0.49999999999999994	244.35313846342825	0	0	0
284	1	1	0.0	0.0	245.2191638672127	0	0	0
285	1	1	0.0	-0.49999999999999994	246.08518927099715	0	0	0
286	1	1	0.0	0.0	246.9512146747816	0	0	0
287	1	1	0.0	-0.49999999999999994	247.81724007856604	0	0	0
288	1	1	0.0	0.0	248.6832654823505	0	0	0
289	1	1	0.0	-0.49999999999999994	249.54929088613494	0	0	0
290	1	1	0.0	0.0	250.4153162899194	0	0	0
291	1	1	0.0	-0.49999999999999994	251.28134169370384	0	0	0
292	1	1	0.0	0.0	252.14736709748829	0	0	0
293	1	1	0.0	-0.49999999999999994	253.01339250127273	0	0	0
294	1	1	0.0	0.0	253.87941790505718	0	0	0
295	1	1	0.0	-0.49999999999999994	254.74544330884163	0	0	0
296	1	1	0.0	0.0	255.61146871262608	0	0	0
297	1	1	0.0	-0.49999999999999994	256.4774941164105	0	0	0
298	1	1	0.0	0.0	257.34351952019495	0	0	0
299	1	1	0.0	-0.49999999999999994	258.20954492397937	0	0	0
300	1	1	0.0	0.0	259.0755703277638	0	0	0
301	1	1	0.0	-0.49999999999999994	259.9415957315482	0	0	0
302	1	1	0.0	0.0	260.8076211353326	0	0	0
303	1	1	0.0	-0.49999999999999994	261.67364653911704	0	0	0
304	1	1	0.0	0.0	262.53967194290146	0	0	0
305	1	1	0.0	-0.49999999999999994	263.4056973466859	0	0	0
306	1	1	0.0	0.0	264.2717227504703	0	0	0
307	1	1	0.0	-0.49999999999999994	265.1377481542547	0	0	0
308	1	1	0.0	0.0	266.00377355803914	0	0	0
309	1	1	0.0	-0.49999999999999994	266.86979896182356	0	0	0
310	1	1	0.0	0.0	267.735824365608	0	0	0
311	1	1	0.0	-0.49999999999999994	268.6018497693924	0	0	0
312	1	1	0.0	0.0	269.4678751731768	0	0	0
313	1	1	0.0	-0.49999999999999994	270.33390057696124	0	0	0
314	1	1	0.0	0.0	271.19992598074566	0	0	0
315	1	1	0.0	-0.49999999999999994	272.0659513845301	0	0	0
316	1	1	0.0	0.0	272.9319767883145	0	0	0
317	1	1	0.0	-0.49999999999999994	273.7980021920989	0	0	0
318	1	1	0.0	0.0	274.66402759588334	0	0	0
319	1	1	0.0	-0.49999999999999994	275.53005299966776	0	0	0
320	1	1	0.0	0.0	276.3960784034522	0	0	0
321	1	1	0.0	-0.49999999999999994	277.2621038072366	0	0	0
322	1	1	0.0	0.0	278.128129211021	0	0	0
323	1	1	0.0	-0.49999999999999994	278.99415461480544	0	0	0
324	1	1	0.0	0.0	279.86018001858986	0	0	0
325	1	1	0.0	-0.49999999999999994	280.7262054223743	0	0	0
326	1	1	0.0	0.0	281.5922308261587	0	0	0
327	1	1	0.0	-0.49999999999999994	282.4582562299431	0	0	0
328	1	1	0.0	0.0	283.32428163372754	0	0	0
329	1	1	0.0	-0.49999999999999994	284.19030703751196	0	0	0
330	1	1	0.0	0.0	285.0563324412964	0	0	0
331	1	1	0.0	-0.49999999999999994	285.9223578450808	0	0	0
332	1	1	0.0	0.0	286.7883832488652	0	0	0
333	1	1	0.0	-0.49999999999999994	287.65440865264964	0	0	0
334	1	1	0.0	0.0	288.52043405643406	0	0	0
335	1	1	0.0	-0.49999999999999994	289.3864594602185	0	0	0
336	1	1	0.0	0.0	290.2524848640029	0	0	0
337	1	1	0.0	-0.49999999999999994	291.1185102677873	0	0	0
338	1	1	0.0	0.0	291.98453567157173	0	0	0
339	1	1	0.0	-0.49999999999999994	292.85056107535615	0	0	0
340	1	1	0.0	0.0	293.7165864791406	0	0	0
341	1	1	0.0	-0.49999999999999994	294.582611882925	0	0	0
342	1	1	0.0	0.0	295.4486372867094	0	0	0
343	1	1	0.0	-0.49999999999999994	296.31466269049383	0	0	0
344	1	1	0.0	0.0	297.18068809427825	0	0	0
345	1	1	0.0	-0.49999999999999994	298.0467134980627	0	0	0
346	1	1	0.0	0.0	298.9127389018471	0	0	0
347	1	1	0.0	-0.49999999999999994	299.7787643056315	0	0	0
348	1	1	0.0	0.0	300.64478970941593	0	0	0
349	1	1	0.0	-0.49999999999999994	301.51081511320035	0	0	0
350	1	1	0.0	0.0	302.37684051698477	0	0	0
351	1	1	0.0	-0.49999999999999994	303.2428659207692	0	0	0
352	1	1	0.0	0.0	304.1088913245536	0	0	0
353	1	1	0.0	-0.49999999999999994	304.97491672833803	0	0	0
354	1	1	0.0	0.0	305.84094213212245	0	0	0
355	1	1	0.0	-0.49999999999999994	306.70696753590687	0	0	0
356	1	1	0.0	0.0	307.5729929396913	0	0	0
357	1	1	0.0	-0.49999999999999994	308.4390183434757	0	0	0
358	1	1	0.0	0.0	309.30504374726013	0	0	0
359	1	1	0.0	-0.49999999999999994	310.17106915104455	0	0	0
360	1	1	0.0	0.0	311.03709455482897	0	0	0
361	1	1	0.0	-0.49999999999999994	311.9031199586134	0	0	0
362	1	1	0.0	0.0	312.7691453623978	0	0	0
363	1	1	0.0	-0.49999999999999994	313.6351707661822	0	0	0
364	1	1	0.0	0.0	314.50119616996665	0	0	0
365	1	1	0.0	-0.49999999999999994	315.36722157375107	0	0	0
366	1	1	0.0	0.0	316.2332469775355	0	0	0
367	1	1	0.0	-0.49999999999999994	317.0992723813199	0	0	0
368	1	1	0.0	0.0	317.9652977851043	0	0	0
369	1	1	0.0	-0.49999999999999994	318.83132318888875	0	0	0
370	1	1	0.0	0.0	319.69734859267317	0	0	0
371	1	1	0.0	-0.49999999999999994	320.5633739964576	0	0	0
372	1	1	0.0	0.0	321.429399400242	0	0	0
373	1	1	0.0	-0.49999999999999994	322.2954248040264	0	0	0
374	1	1	0.0	0.0	323.16145020781084	0	0	0
375	1	1	0.0	-0.49999999999999994	324.02747561159526	0	0	0
376	1	1	0.0	0.0	324.8935010153797	0	0	0
377	1	1	0.0	-0.49999999999999994	325.7595264191641	0	0	0
378	1	1	0.0	0.0	326.6255518229485	0	0	0
379	1	1	0.0	-0.49999999999999994	327.49157722673294	0	0	0
380	1	1	0.0	0.0	328.35760263051736	0	0	0
381	1	1	0.0	-0.49999999999999994	329.2236280343018	0	0	0
382	1	1	0.0	0.0	330.0896534380862	0	0	0
383	1	1	0.0	-0.49999999999999994	330.9556788418706	0	0	0
384	1	1	0.0	0.0	331.82170424565504	0	0	0
385	1	1	0.0	-0.49999999999999994	332.68772964943946	0	0	0
386	1	1	0.0	0.0	333.5537550532239	0	0	0
387	1	1	0.0	-0.49999999999999994	334.4197804570083	0	0	0
388	1	1	0.0	0.0	335.2858058607927	0	0	0
389	1	1	0.0	-0.49999999999999994	336.15183126457714	0	0	0
390	1	1	0.0	0.0	337.01785666836156	0	0	0
391	1	1	0.0	-0.49999999999999994	337.883882072146	0	0	0
392	1	1	0.0	0.0	338.7499074759304	0	0	0
393	1	1	0.0	-0.49999999999999994	339.6159328797148	0	0	0
394	1	1	0.0	0.0	340.48195828349924	0	0	0
395	1	1	0.0	-0.49999999999999994	341.34798368728366	0	0	0
396	1	1	0.0	0.0	342.2140090910681	0	0	0
397	1	1	0.0	-0.49999999999999994	343.0800344948525	0	0	0
398	1	1	0.0	0.0	343.9460598986369	0	0	0
399	1	1	0.0	-0.49999999999999994	344.81208530242134	0	0	0
400	1	1	0.0	0.0	345.67811070620576	0	0	0
401	1	1	0.0	-0.49999999999999994	346.5441361099902	0	0	0
402	1	1	-0.31140284530375356	-1.449836553026864	346.5730979896035	0	0	0
403	1	1	-0.6228056906075121	-2.2869000771978705	346.1232614365766	0	0	0
404	1	1	-0.9342085359112708	-3.09500172175551	346.62326143657657	0	0	0
405	1	1	-1.2456113812150296	-3.932065245926516	346.17342488354967	0	0	0
406	1	1	-1.5570142265187883	-4.740166890484155	346.6734248835496	0	0	0
407	1	1	-1.868417071822547	-5.577230414655162	346.2235883305227	0	0	0
408	1	1	-2.1798199171263057	-6.385332059212801	346.72358833052266	0	0	0
409	1	1	-2.4912227624300645	-7.222395583383808	346.27375177749576	0	0	0
410	1	1	-2.802625607733823	-8.030497227941447	346.7737517774957	0	0	0
411	1	1	-3.114028453037582	-8.867560752112453	346.3239152244688	0	0	0
412	1	1	-3.4254312983413406	-9.675662396670093	346.82391522446875	0	0	0
413	1	1	-3.7368341436450994	-10.512725920841099	346.37407867144185	0	0	0
414	1	1	-4.048236988948858	-11.320827565398739	346.8740786714418	0	0	0
415	1	1	-4.359639834252617	-12.157891089569745	346.4242421184149	0	0	0
416	1	1	-4.6710426795563755	-12.965992734127385	346.92424211841484	0	0	0
417	1	1	-4.982445524860134	-13.80305625829839	346.47440556538794	0	0	0
418	1	1	-5.293848370163893	-14.61115790285603	346.9744055653879	0	0	0
419	1	1	-5.605251215467652	-15.448221427027036	346.524569012361	0	0	0
420	1	1	-5.91665406077141	-16.256323071584674	347.0245690123609	0	0	0
421	1	1	-6.228056906075169	-17.093386595755682	346.57473245933403	0	0	0
422	1	1	-6.539459751378928	-17.90148824031332	347.074732459334	0	0	0
423	1	1	-6.850862596682687	-18.738551764484328	346.6248959063071	0	0	0
424	1	1	-7.162265441986445	-19.546653409041966	347.124895906307	0	0	0
425	1	1	-7.473668287290204	-20.383716933212973	346.6750593532801	0	0	0
426	1	1	-7.785071132593963	-21.19181857777061	347.17505935328006	0	0	0
427	1	1	-8.096473977897721	-22.02888210194162	346.72522280025316	0	0	0
428	1	1	-8.40787682320148	-22.836983746499257	347.2252228002531	0	0	0
429	1	1	-8.719279668505239	-23.674047270670265	346.7753862472262	0	0	0
430	1	1	-9.030682513808998	-24.482148915227903	347.27538624722615	0	0	0
431	1	1	-9.342085359112756	-25.31921243939891	346.82554969419925	0	0	0
432	1	1	-9.653488204416515	-26.12731408395655	347.3255496941992	0	0	0
433	1	1	-9.964891049720274	-26.964377608127556	346.8757131411723	0	0	0
434	1	1	-10.276293895024033	-27.772479252685194	347.37571314117224	0	0	0
435	1	1	-10.587696740327791	-28.609542776856202	346.92587658814534	0	0	0
436	1	1	-10.89909958563155	-29.41764442141384	347.4258765881453	0	0	0
437	1	1	-11.210502430935309	-30.254707945584848	346.9760400351184	0	0	0
438	1	1	-11.521905276239067	-31.062809590142486	347.47604003511833	0	0	0
439	1	1	-11.833308121542826	-31.899873114313493	347.02620348209143	0	0	0
440	1	1	-12.144710966846585	-32.70797475887113	347.5262034820914	0	0	0
441	1	1	-12.456113812150344	-33.54503828304214	347.0763669290645	0	0	0
442	1	1	-12.767516657454102	-34.35313992759978	347.5763669290644	0	0	0
443	1	1	-13.078919502757861	-35.190203451770785	347.1265303760375	0	0	0
444	1	1	-13.39032234806162	-35.99830509632842	347.62653037603746	0	0	0
445	1	1	-13.701725193365379	-36.83536862049943	347.17669382301057	0	0	0
446	1	1	-14.013128038669137	-37.64347026505707	347.6766938230105	0	0	0
447	1	1	-14.324530883972896	-38.480533789228076	347.2268572699836	0	0	0
448	1	1	-14.635933729276655	-39.288635433785714	347.72685726998355	0	0	0
449	1	1	-14.947336574580413	-40.12569895795672	347.27702071695666	0	0	0
450	1	1	-15.258739419884172	-40.93380060251436	347.7770207169566	0	0	0
451	1	1	-15.57014226518793	-41.77086412668537	347.3271841639297	0	0	0
452	1	1	-15.88154511049169	-42.578965771243006	347.82718416392964	0	0	0
453	1	1	-16.192947955795447	-43.41602929541401	347.37734761090275	0	0	0
454	1	1	-16.504350801099203	-44.22413093997165	347.8773476109027	0	0	0
455	1	1	-16.81575364640296	-45.06119446414266	347.4275110578758	0	0	0
456	1	1	-17.127156491706717	-45.8692961087003	347.92751105787573	0	0	0
457	1	1	-17.438559337010474	-46.706359632871305	347.47767450484884	0	0	0
458	1	1	-17.74996218231423	-47.51446127742894	347.9776745048488	0	0	0
459	1	1	-18.06136502761799	-48.35152480159995	347.5278379518219	0	0	0
460	1	1	-18.372767872921745	-49.15962644615759	348.0278379518218	0	0	0
461	1	1	-18.684170718225502	-49.996689970328596	347.5780013987949	0	0	0
462	1	1	-18.99557356352926	-50.804791614886234	348.07800139879487	0	0	0
463	1	1	-19.306976408833016	-51.64185513905724	347.62816484576797	0	0	0
464	1	1	-19.618379254136773	-52.44995678361488	348.1281648457679	0	0	0
465	1	1	-19.92978209944053	-53.28702030778589	347.678328292741	0	0	0
466	1	1	-20.241184944744287	-54.095121952343526	348.17832829274096	0	0	0
467	1	1	-20.552587790048044	-54.93218547651453	347.72849173971406	0	0	0
468	1	1	-20.8639906353518	-55.74028712107217	348.228491739714	0	0	0
469	1	1	-21.175393480655558	-56.57735064524318	347.7786551866871	0	0	0
470	1	1	-21.486796325959315	-57.38545228980082	348.27865518668705	0	0	0
471	1	1	-21.79819917126307	-58.222515813971825	347.82881863366015	0	0	0
472	1	1	-22.10960201656683	-59.03061745852946	348.3288186336601	0	0	0
473	1	1	-22.421004861870586	-59.86768098270047	347.8789820806332	0	0	0
474	1	1	-22.732407707174342	-60.67578262725811	348.37898208063314	0	0	0
475	1	1	-23.0438105524781	-61.512846151429116	347.92914552760624	0	0	0
476	1	1	-23.355213397781856	-62.320947795986754	348.4291455276062	0	0	0
477	1	1	-23.666616243085613	-63.15801132015776	347.9793089745793	0	0	0
478	1	1	-23.97801908838937	-63.9661129647154	348.4793089745792	0	0	0
479	1	1	-24.289421933693127	-64.80317648888641	348.0294724215523	0	0	0
480	1	1	-24.600824778996884	-65.61127813344405	348.52947242155227	0	0	0
481	1	1	-24.91222762430064	-66.44834165761505	348.0796358685254	0	0	0
482	1	1	-25.223630469604398	-67.25644330217268	348.5796358685253	0	0	0
483	1	1	-25.535033314908155	-68.09350682634368	348.1297993154984	0	0	0
484	1	1	-25.846436160211912	-68.90160847090132	348.62979931549836	0	0	0
485	1	1	-26.15783900551567	-69.73867199507232	348.17996276247146	0	0	0
486	1	1	-26.469241850819426	-70.54677363962996	348.6799627624714	0	0	0
487	1	1	-26.780644696123183	-71.38383716380096	348.2301262094445	0	0	0
488	1	1	-27.09204754142694	-72.1919388083586	348.73012620944445	0	0	0
489	1	1	-27.403450386730697	-73.0290023325296	348.28028965641755	0	0	0
490	1	1	-27.714853232034454	-73.83710397708724	348.7802896564175	0	0	0
491	1	1	-28.02625607733821	-74.67416750125824	348.3304531033906	0	0	0
492	1	1	-28.337658922641968	-75.48226914581588	348.83045310339054	0	0	0
493	1	1	-28.649061767945724	-76.31933266998688	348.38061655036364	0	0	0
494	1	1	-28.96046461324948	-77.12743431454452	348.8806165503636	0	0	0
495	1	1	-29.27186745855324	-77.96449783871552	348.4307799973367	0	0	0
496	1	1	-29.583270303856995	-78.77259948327315	348.93077999733663	0	0	0
497	1	1	-29.894673149160752	-79.60966300744415	348.48094344430973	0	0	0
498	1	1	-30.20607599446451	-80.4177646520018	348.9809434443097	0	0	0
499	1	1	-30.517478839768266	-81.2548281761728	348.5311068912828	0	0	0
500	1	1	-30.828881685072023	-82.06292982073043	349.0311068912827	0	0	0
501	1	1	-31.14028453037578	-82.89999334490143	348.5812703382558	0	0	0
502	1	1	-31.451687375679537	-83.70809498945907	349.08127033825576	0	0	0
503	1	1	-31.763090220983294	-84.54515851363007	348.63143378522886	0	0	0
504	1	1	-32.074493066287054	-85.35326015818771	349.1314337852288	0	0	0
505	1	1	-32.385895911590815	-86.19032368235871	348.6815972322019	0	0	0
506	1	1	-32.697298756894575	-86.99842532691635	349.18159723220185	0	0	0
507	1	1	-33.008701602198336	-87.83548885108735	348.73176067917495	0	0	0
508	1	1	-33.320104447502096	-88.64359049564499	349.2317606791749	0	0	0
509	1	1	-33.63150729280586	-89.48065401981599	348.781924126148	0	0	0
510	1	1	-33.94291013810962	-90.28875566437362	349.28192412614794	0	0	0
511	1	1	-34.25431298341338	-91.12581918854463	348.83208757312104	0	0	0
512	1	1	-34.56571582871714	-91.93392083310226	349.332087573121	0	0	0
513	1	1	-34.8771186740209	-92.77098435727326	348.8822510200941	0	0	0
514	1	1	-35.18852151932466	-93.5790860018309	349.38225102009403	0	0	0
515	1	1	-35.49992436462842	-94.4161495260019	348.93241446706713	0	0	0
516	1	1	-35.81132720993218	-95.22425117055954	349.4324144670671	0	0	0
517	1	1	-36.12273005523594	-96.06131469473054	348.9825779140402	0	0	0
518	1	1	-36.4341329005397	-96.86941633928818	349.4825779140401	0	0	0
519	1	1	-36.74553574584346	-97.70647986345918	349.0327413610132	0	0	0
520	1	1	-37.05693859114722	-98.51458150801682	349.53274136101317	0	0	0
521	1	1	-37.36834143645098	-99.35164503218782	349.08290480798627	0	0	0
522	1	1	-37.67974428175474	-100.15974667674546	349.5829048079862	0	0	0
523	1	1	-37.991147127058504	-100.99681020091646	349.1330682549593	0	0	0
524	1	1	-38.302549972362264	-101.8049118454741	349.63306825495926	0	0	0
525	1	1	-38.613952817666025	-102.6419753696451	349.18323170193236	0	0	0
526	1	1	-38.925355662969785	-103.45007701420273	349.6832317019323	0	0	0
527	1	1	-39.236758508273546	-104.28714053837373	349.2333951489054	0	0	0
528	1	1	-39.548161353577306	-105.09524218293137	349.73339514890534	0	0	0
529	1	1	-39.85956419888107	-105.93230570710237	349.28355859587845	0	0	0
530	1	1	-40.17096704418483	-106.74040735166001	349.7835585958784	0	0	0
531	1	1	-40.48236988948859	-107.57747087583101	349.3337220428515	0	0	0
532	1	1	-40.79377273479235	-108.38557252038865	349.83372204285143	0	0	0
533	1	1	-41.10517558009611	-109.22263604455965	349.38388548982454	0	0	0
534	1	1	-41.41657842539987	-110.03073768911729	349.8838854898245	0	0	0
535	1	1	-41.72798127070363	-110.86780121328829	349.4340489367976	0	0	0
536	1	1	-42.03938411600739	-111.67590285784593	349.9340489367975	0	0	0
537	1	1	-42.35078696131115	-112.51296638201693	349.4842123837706	0	0	0
538	1	1	-42.66218980661491	-113.32106802657457	349.98421238377057	0	0	0
539	1	1	-42.97359265191867	-114.15813155074557	349.53437583074367	0	0	0
540	1	1	-43.28499549722243	-114.9662331953032	350.0343758307436	0	0	0
541	1	1	-43.59639834252619	-115.8032967194742	349.5845392777167	0	0	0
542	1	1	-43.90780118782995	-116.61139836403184	350.08453927771666	0	0	0
543	1	1	-44.219204033133714	-117.44846188820284	349.63470272468976	0	0	0
544	1	1	-44.530606878437474	-118.25656353276048	350.1347027246897	0	0	0
545	1	1	-44.842009723741235	-119.09362705693148	349.6848661716628	0	0	0
546	1	1	-45.153412569044995	-119.90172870148912	350.18486617166275	0	0	0