bb200nuc0bl0bn0d30tot200

200 atoms
199 bonds
198 angles

1 atom types
1 bond types
1 angle types

-1000 1000 xlo xhi
-1000 1000 ylo yhi
-1000 1000 zlo zhi

Masses

1 1

Atoms

1	1	1	0.0	0.0	0.0	0	0	0
2	1	1	0.0	1.0	0.0	0	0	0
3	1	1	0.0	1.8660254037844388	0.49999999999999994	0	0	0
4	1	1	0.0	2.7320508075688776	0.0	0	0	0
5	1	1	0.0	3.5980762113533165	0.49999999999999994	0	0	0
6	1	1	0.0	4.464101615137755	0.0	0	0	0
7	1	1	0.0	5.330127018922194	0.49999999999999994	0	0	0
8	1	1	0.0	6.196152422706632	0.0	0	0	0
9	1	1	0.0	7.06217782649107	0.49999999999999994	0	0	0
10	1	1	0.0	7.928203230275509	0.0	0	0	0
11	1	1	0.0	8.794228634059948	0.49999999999999994	0	0	0
12	1	1	0.0	9.660254037844387	0.0	0	0	0
13	1	1	0.0	10.526279441628827	0.49999999999999994	0	0	0
14	1	1	0.0	11.392304845413266	0.0	0	0	0
15	1	1	0.0	12.258330249197705	0.49999999999999994	0	0	0
16	1	1	0.0	13.124355652982144	0.0	0	0	0
17	1	1	0.0	13.990381056766584	0.49999999999999994	0	0	0
18	1	1	0.0	14.856406460551023	0.0	0	0	0
19	1	1	0.0	15.722431864335462	0.49999999999999994	0	0	0
20	1	1	0.0	16.5884572681199	0.0	0	0	0
21	1	1	0.0	17.454482671904337	0.49999999999999994	0	0	0
22	1	1	0.0	18.320508075688775	0.0	0	0	0
23	1	1	0.0	19.186533479473212	0.49999999999999994	0	0	0
24	1	1	0.0	20.05255888325765	0.0	0	0	0
25	1	1	0.0	20.918584287042087	0.49999999999999994	0	0	0
26	1	1	0.0	21.784609690826525	0.0	0	0	0
27	1	1	0.0	22.650635094610962	0.49999999999999994	0	0	0
28	1	1	0.0	23.5166604983954	0.0	0	0	0
29	1	1	0.0	24.382685902179837	0.49999999999999994	0	0	0
30	1	1	0.0	25.248711305964274	0.0	0	0	0
31	1	1	0.0	26.114736709748712	0.49999999999999994	0	0	0
32	1	1	0.0	26.98076211353315	0.0	0	0	0
33	1	1	0.0	27.846787517317587	0.49999999999999994	0	0	0
34	1	1	0.0	28.712812921102024	0.0	0	0	0
35	1	1	0.0	29.578838324886462	0.49999999999999994	0	0	0
36	1	1	0.0	30.4448637286709	0.0	0	0	0
37	1	1	0.0	31.310889132455337	0.49999999999999994	0	0	0
38	1	1	0.0	32.17691453623978	0.0	0	0	0
39	1	1	0.0	33.04293994002422	0.49999999999999994	0	0	0
40	1	1	0.0	33.90896534380866	0.0	0	0	0
41	1	1	0.0	34.7749907475931	0.49999999999999994	0	0	0
42	1	1	0.0	35.64101615137754	0.0	0	0	0
43	1	1	0.0	36.50704155516198	0.49999999999999994	0	0	0
44	1	1	0.0	37.373066958946424	0.0	0	0	0
45	1	1	0.0	38.239092362730865	0.49999999999999994	0	0	0
46	1	1	0.0	39.105117766515306	0.0	0	0	0
47	1	1	0.0	39.97114317029975	0.49999999999999994	0	0	0
48	1	1	0.0	40.83716857408419	0.0	0	0	0
49	1	1	0.0	41.70319397786863	0.49999999999999994	0	0	0
50	1	1	0.0	42.56921938165307	0.0	0	0	0
51	1	1	0.0	43.43524478543751	0.49999999999999994	0	0	0
52	1	1	0.0	44.30127018922195	0.0	0	0	0
53	1	1	0.0	45.16729559300639	0.49999999999999994	0	0	0
54	1	1	0.0	46.033320996790835	0.0	0	0	0
55	1	1	0.0	46.899346400575276	0.49999999999999994	0	0	0
56	1	1	0.0	47.76537180435972	0.0	0	0	0
57	1	1	0.0	48.63139720814416	0.49999999999999994	0	0	0
58	1	1	0.0	49.4974226119286	0.0	0	0	0
59	1	1	0.0	50.36344801571304	0.49999999999999994	0	0	0
60	1	1	0.0	51.22947341949748	0.0	0	0	0
61	1	1	0.0	52.09549882328192	0.49999999999999994	0	0	0
62	1	1	0.0	52.96152422706636	0.0	0	0	0
63	1	1	0.0	53.827549630850804	0.49999999999999994	0	0	0
64	1	1	0.0	54.693575034635245	0.0	0	0	0
65	1	1	0.0	55.559600438419686	0.49999999999999994	0	0	0
66	1	1	0.0	56.42562584220413	0.0	0	0	0
67	1	1	0.0	57.29165124598857	0.49999999999999994	0	0	0
68	1	1	0.0	58.15767664977301	0.0	0	0	0
69	1	1	0.0	59.02370205355745	0.49999999999999994	0	0	0
70	1	1	0.0	59.88972745734189	0.0	0	0	0
71	1	1	0.0	60.75575286112633	0.49999999999999994	0	0	0
72	1	1	0.0	61.62177826491077	0.0	0	0	0
73	1	1	0.0	62.487803668695214	0.49999999999999994	0	0	0
74	1	1	0.0	63.353829072479655	0.0	0	0	0
75	1	1	0.0	64.21985447626409	0.49999999999999994	0	0	0
76	1	1	0.0	65.08587988004852	0.0	0	0	0
77	1	1	0.0	65.95190528383296	0.49999999999999994	0	0	0
78	1	1	0.0	66.81793068761739	0.0	0	0	0
79	1	1	0.0	67.68395609140183	0.49999999999999994	0	0	0
80	1	1	0.0	68.54998149518626	0.0	0	0	0
81	1	1	0.0	69.41600689897069	0.49999999999999994	0	0	0
82	1	1	0.0	70.28203230275513	0.0	0	0	0
83	1	1	0.0	71.14805770653956	0.49999999999999994	0	0	0
84	1	1	0.0	72.014083110324	0.0	0	0	0
85	1	1	0.0	72.88010851410843	0.49999999999999994	0	0	0
86	1	1	0.0	73.74613391789286	0.0	0	0	0
87	1	1	0.0	74.6121593216773	0.49999999999999994	0	0	0
88	1	1	0.0	75.47818472546173	0.0	0	0	0
89	1	1	0.0	76.34421012924616	0.49999999999999994	0	0	0
90	1	1	0.0	77.2102355330306	0.0	0	0	0
91	1	1	0.0	78.07626093681503	0.49999999999999994	0	0	0
92	1	1	0.0	78.94228634059947	0.0	0	0	0
93	1	1	0.0	79.8083117443839	0.49999999999999994	0	0	0
94	1	1	0.0	80.67433714816833	0.0	0	0	0
95	1	1	0.0	81.54036255195277	0.49999999999999994	0	0	0
96	1	1	0.0	82.4063879557372	0.0	0	0	0
97	1	1	0.0	83.27241335952164	0.49999999999999994	0	0	0
98	1	1	0.0	84.13843876330607	0.0	0	0	0
99	1	1	0.0	85.0044641670905	0.49999999999999994	0	0	0
100	1	1	0.0	85.87048957087494	0.0	0	0	0
101	1	1	0.0	86.73651497465937	0.49999999999999994	0	0	0
102	1	1	0.0	87.6025403784438	0.0	0	0	0
103	1	1	0.0	88.46856578222824	0.49999999999999994	0	0	0
104	1	1	0.0	89.33459118601267	0.0	0	0	0
105	1	1	0.0	90.20061658979711	0.49999999999999994	0	0	0
106	1	1	0.0	91.06664199358154	0.0	0	0	0
107	1	1	0.0	91.93266739736598	0.49999999999999994	0	0	0
108	1	1	0.0	92.79869280115041	0.0	0	0	0
109	1	1	0.0	93.66471820493484	0.49999999999999994	0	0	0
110	1	1	0.0	94.53074360871928	0.0	0	0	0
111	1	1	0.0	95.39676901250371	0.49999999999999994	0	0	0
112	1	1	0.0	96.26279441628814	0.0	0	0	0
113	1	1	0.0	97.12881982007258	0.49999999999999994	0	0	0
114	1	1	0.0	97.99484522385701	0.0	0	0	0
115	1	1	0.0	98.86087062764145	0.49999999999999994	0	0	0
116	1	1	0.0	99.72689603142588	0.0	0	0	0
117	1	1	0.0	100.59292143521031	0.49999999999999994	0	0	0
118	1	1	0.0	101.45894683899475	0.0	0	0	0
119	1	1	0.0	102.32497224277918	0.49999999999999994	0	0	0
120	1	1	0.0	103.19099764656362	0.0	0	0	0
121	1	1	0.0	104.05702305034805	0.49999999999999994	0	0	0
122	1	1	0.0	104.92304845413248	0.0	0	0	0
123	1	1	0.0	105.78907385791692	0.49999999999999994	0	0	0
124	1	1	0.0	106.65509926170135	0.0	0	0	0
125	1	1	0.0	107.52112466548579	0.49999999999999994	0	0	0
126	1	1	0.0	108.38715006927022	0.0	0	0	0
127	1	1	0.0	109.25317547305465	0.49999999999999994	0	0	0
128	1	1	0.0	110.11920087683909	0.0	0	0	0
129	1	1	0.0	110.98522628062352	0.49999999999999994	0	0	0
130	1	1	0.0	111.85125168440796	0.0	0	0	0
131	1	1	0.0	112.71727708819239	0.49999999999999994	0	0	0
132	1	1	0.0	113.58330249197682	0.0	0	0	0
133	1	1	0.0	114.44932789576126	0.49999999999999994	0	0	0
134	1	1	0.0	115.31535329954569	0.0	0	0	0
135	1	1	0.0	116.18137870333013	0.49999999999999994	0	0	0
136	1	1	0.0	117.04740410711456	0.0	0	0	0
137	1	1	0.0	117.913429510899	0.49999999999999994	0	0	0
138	1	1	0.0	118.77945491468343	0.0	0	0	0
139	1	1	0.0	119.64548031846786	0.49999999999999994	0	0	0
140	1	1	0.0	120.5115057222523	0.0	0	0	0
141	1	1	0.0	121.37753112603673	0.49999999999999994	0	0	0
142	1	1	0.0	122.24355652982116	0.0	0	0	0
143	1	1	0.0	123.1095819336056	0.49999999999999994	0	0	0
144	1	1	0.0	123.97560733739003	0.0	0	0	0
145	1	1	0.0	124.84163274117446	0.49999999999999994	0	0	0
146	1	1	0.0	125.7076581449589	0.0	0	0	0
147	1	1	0.0	126.57368354874333	0.49999999999999994	0	0	0
148	1	1	0.0	127.43970895252777	0.0	0	0	0
149	1	1	0.0	128.3057343563122	0.49999999999999994	0	0	0
150	1	1	0.0	129.17175976009665	0.0	0	0	0
151	1	1	0.0	130.0377851638811	0.49999999999999994	0	0	0
152	1	1	0.0	130.90381056766554	0.0	0	0	0
153	1	1	0.0	131.76983597145	0.49999999999999994	0	0	0
154	1	1	0.0	132.63586137523444	0.0	0	0	0
155	1	1	0.0	133.5018867790189	0.49999999999999994	0	0	0
156	1	1	0.0	134.36791218280334	0.0	0	0	0
157	1	1	0.0	135.23393758658779	0.49999999999999994	0	0	0
158	1	1	0.0	136.09996299037223	0.0	0	0	0
159	1	1	0.0	136.96598839415668	0.49999999999999994	0	0	0
160	1	1	0.0	137.83201379794113	0.0	0	0	0
161	1	1	0.0	138.69803920172558	0.49999999999999994	0	0	0
162	1	1	0.0	139.56406460551003	0.0	0	0	0
163	1	1	0.0	140.43009000929447	0.49999999999999994	0	0	0
164	1	1	0.0	141.29611541307892	0.0	0	0	0
165	1	1	0.0	142.16214081686337	0.49999999999999994	0	0	0
166	1	1	0.0	143.02816622064782	0.0	0	0	0
167	1	1	0.0	143.89419162443227	0.49999999999999994	0	0	0
168	1	1	0.0	144.76021702821672	0.0	0	0	0
169	1	1	0.0	145.62624243200116	0.49999999999999994	0	0	0
170	1	1	0.0	146.4922678357856	0.0	0	0	0
171	1	1	0.0	147.35829323957006	0.49999999999999994	0	0	0
172	1	1	0.0	148.2243186433545	0.0	0	0	0
173	1	1	0.0	149.09034404713896	0.49999999999999994	0	0	0
174	1	1	0.0	149.9563694509234	0.0	0	0	0
175	1	1	0.0	150.82239485470785	0.49999999999999994	0	0	0
176	1	1	0.0	151.6884202584923	0.0	0	0	0
177	1	1	0.0	152.55444566227675	0.49999999999999994	0	0	0
178	1	1	0.0	153.4204710660612	0.0	0	0	0
179	1	1	0.0	154.28649646984564	0.49999999999999994	0	0	0
180	1	1	0.0	155.1525218736301	0.0	0	0	0
181	1	1	0.0	156.01854727741454	0.49999999999999994	0	0	0
182	1	1	0.0	156.884572681199	0.0	0	0	0
183	1	1	0.0	157.75059808498344	0.49999999999999994	0	0	0
184	1	1	0.0	158.61662348876789	0.0	0	0	0
185	1	1	0.0	159.48264889255233	0.49999999999999994	0	0	0
186	1	1	0.0	160.34867429633678	0.0	0	0	0
187	1	1	0.0	161.21469970012123	0.49999999999999994	0	0	0
188	1	1	0.0	162.08072510390568	0.0	0	0	0
189	1	1	0.0	162.94675050769013	0.49999999999999994	0	0	0
190	1	1	0.0	163.81277591147457	0.0	0	0	0
191	1	1	0.0	164.67880131525902	0.49999999999999994	0	0	0
192	1	1	0.0	165.54482671904347	0.0	0	0	0
193	1	1	0.0	166.41085212282792	0.49999999999999994	0	0	0
194	1	1	0.0	167.27687752661237	0.0	0	0	0
195	1	1	0.0	168.14290293039682	0.49999999999999994	0	0	0
196	1	1	0.0	169.00892833418126	0.0	0	0	0
197	1	1	0.0	169.8749537379657	0.49999999999999994	0	0	0
198	1	1	0.0	170.74097914175016	0.0	0	0	0
199	1	1	0.0	171.6070045455346	0.49999999999999994	0	0	0
200	1	1	0.0	172.47302994931906	0.0	0	0	0

Bonds

1	1	1	2
2	1	2	3
3	1	3	4
4	1	4	5
5	1	5	6
6	1	6	7
7	1	7	8
8	1	8	9
9	1	9	10
10	1	10	11
11	1	11	12
12	1	12	13
13	1	13	14
14	1	14	15
15	1	15	16
16	1	16	17
17	1	17	18
18	1	18	19
19	1	19	20
20	1	20	21
21	1	21	22
22	1	22	23
23	1	23	24
24	1	24	25
25	1	25	26
26	1	26	27
27	1	27	28
28	1	28	29
29	1	29	30
30	1	30	31
31	1	31	32
32	1	32	33
33	1	33	34
34	1	34	35
35	1	35	36
36	1	36	37
37	1	37	38
38	1	38	39
39	1	39	40
40	1	40	41
41	1	41	42
42	1	42	43
43	1	43	44
44	1	44	45
45	1	45	46
46	1	46	47
47	1	47	48
48	1	48	49
49	1	49	50
50	1	50	51
51	1	51	52
52	1	52	53
53	1	53	54
54	1	54	55
55	1	55	56
56	1	56	57
57	1	57	58
58	1	58	59
59	1	59	60
60	1	60	61
61	1	61	62
62	1	62	63
63	1	63	64
64	1	64	65
65	1	65	66
66	1	66	67
67	1	67	68
68	1	68	69
69	1	69	70
70	1	70	71
71	1	71	72
72	1	72	73
73	1	73	74
74	1	74	75
75	1	75	76
76	1	76	77
77	1	77	78
78	1	78	79
79	1	79	80
80	1	80	81
81	1	81	82
82	1	82	83
83	1	83	84
84	1	84	85
85	1	85	86
86	1	86	87
87	1	87	88
88	1	88	89
89	1	89	90
90	1	90	91
91	1	91	92
92	1	92	93
93	1	93	94
94	1	94	95
95	1	95	96
96	1	96	97
97	1	97	98
98	1	98	99
99	1	99	100
100	1	100	101
101	1	101	102
102	1	102	103
103	1	103	104
104	1	104	105
105	1	105	106
106	1	106	107
107	1	107	108
108	1	108	109
109	1	109	110
110	1	110	111
111	1	111	112
112	1	112	113
113	1	113	114
114	1	114	115
115	1	115	116
116	1	116	117
117	1	117	118
118	1	118	119
119	1	119	120
120	1	120	121
121	1	121	122
122	1	122	123
123	1	123	124
124	1	124	125
125	1	125	126
126	1	126	127
127	1	127	128
128	1	128	129
129	1	129	130
130	1	130	131
131	1	131	132
132	1	132	133
133	1	133	134
134	1	134	135
135	1	135	136
136	1	136	137
137	1	137	138
138	1	138	139
139	1	139	140
140	1	140	141
141	1	141	142
142	1	142	143
143	1	143	144
144	1	144	145
145	1	145	146
146	1	146	147
147	1	147	148
148	1	148	149
149	1	149	150
150	1	150	151
151	1	151	152
152	1	152	153
153	1	153	154
154	1	154	155
155	1	155	156
156	1	156	157
157	1	157	158
158	1	158	159
159	1	159	160
160	1	160	161
161	1	161	162
162	1	162	163
163	1	163	164
164	1	164	165
165	1	165	166
166	1	166	167
167	1	167	168
168	1	168	169
169	1	169	170
170	1	170	171
171	1	171	172
172	1	172	173
173	1	173	174
174	1	174	175
175	1	175	176
176	1	176	177
177	1	177	178
178	1	178	179
179	1	179	180
180	1	180	181
181	1	181	182
182	1	182	183
183	1	183	184
184	1	184	185
185	1	185	186
186	1	186	187
187	1	187	188
188	1	188	189
189	1	189	190
190	1	190	191
191	1	191	192
192	1	192	193
193	1	193	194
194	1	194	195
195	1	195	196
196	1	196	197
197	1	197	198
198	1	198	199
199	1	199	200

Angles

1	1	1	2	3
2	1	2	3	4
3	1	3	4	5
4	1	4	5	6
5	1	5	6	7
6	1	6	7	8
7	1	7	8	9
8	1	8	9	10
9	1	9	10	11
10	1	10	11	12
11	1	11	12	13
12	1	12	13	14
13	1	13	14	15
14	1	14	15	16
15	1	15	16	17
16	1	16	17	18
17	1	17	18	19
18	1	18	19	20
19	1	19	20	21
20	1	20	21	22
21	1	21	22	23
22	1	22	23	24
23	1	23	24	25
24	1	24	25	26
25	1	25	26	27
26	1	26	27	28
27	1	27	28	29
28	1	28	29	30
29	1	29	30	31
30	1	30	31	32
31	1	31	32	33
32	1	32	33	34
33	1	33	34	35
34	1	34	35	36
35	1	35	36	37
36	1	36	37	38
37	1	37	38	39
38	1	38	39	40
39	1	39	40	41
40	1	40	41	42
41	1	41	42	43
42	1	42	43	44
43	1	43	44	45
44	1	44	45	46
45	1	45	46	47
46	1	46	47	48
47	1	47	48	49
48	1	48	49	50
49	1	49	50	51
50	1	50	51	52
51	1	51	52	53
52	1	52	53	54
53	1	53	54	55
54	1	54	55	56
55	1	55	56	57
56	1	56	57	58
57	1	57	58	59
58	1	58	59	60
59	1	59	60	61
60	1	60	61	62
61	1	61	62	63
62	1	62	63	64
63	1	63	64	65
64	1	64	65	66
65	1	65	66	67
66	1	66	67	68
67	1	67	68	69
68	1	68	69	70
69	1	69	70	71
70	1	70	71	72
71	1	71	72	73
72	1	72	73	74
73	1	73	74	75
74	1	74	75	76
75	1	75	76	77
76	1	76	77	78
77	1	77	78	79
78	1	78	79	80
79	1	79	80	81
80	1	80	81	82
81	1	81	82	83
82	1	82	83	84
83	1	83	84	85
84	1	84	85	86
85	1	85	86	87
86	1	86	87	88
87	1	87	88	89
88	1	88	89	90
89	1	89	90	91
90	1	90	91	92
91	1	91	92	93
92	1	92	93	94
93	1	93	94	95
94	1	94	95	96
95	1	95	96	97
96	1	96	97	98
97	1	97	98	99
98	1	98	99	100
99	1	99	100	101
100	1	100	101	102
101	1	101	102	103
102	1	102	103	104
103	1	103	104	105
104	1	104	105	106
105	1	105	106	107
106	1	106	107	108
107	1	107	108	109
108	1	108	109	110
109	1	109	110	111
110	1	110	111	112
111	1	111	112	113
112	1	112	113	114
113	1	113	114	115
114	1	114	115	116
115	1	115	116	117
116	1	116	117	118
117	1	117	118	119
118	1	118	119	120
119	1	119	120	121
120	1	120	121	122
121	1	121	122	123
122	1	122	123	124
123	1	123	124	125
124	1	124	125	126
125	1	125	126	127
126	1	126	127	128
127	1	127	128	129
128	1	128	129	130
129	1	129	130	131
130	1	130	131	132
131	1	131	132	133
132	1	132	133	134
133	1	133	134	135
134	1	134	135	136
135	1	135	136	137
136	1	136	137	138
137	1	137	138	139
138	1	138	139	140
139	1	139	140	141
140	1	140	141	142
141	1	141	142	143
142	1	142	143	144
143	1	143	144	145
144	1	144	145	146
145	1	145	146	147
146	1	146	147	148
147	1	147	148	149
148	1	148	149	150
149	1	149	150	151
150	1	150	151	152
151	1	151	152	153
152	1	152	153	154
153	1	153	154	155
154	1	154	155	156
155	1	155	156	157
156	1	156	157	158
157	1	157	158	159
158	1	158	159	160
159	1	159	160	161
160	1	160	161	162
161	1	161	162	163
162	1	162	163	164
163	1	163	164	165
164	1	164	165	166
165	1	165	166	167
166	1	166	167	168
167	1	167	168	169
168	1	168	169	170
169	1	169	170	171
170	1	170	171	172
171	1	171	172	173
172	1	172	173	174
173	1	173	174	175
174	1	174	175	176
175	1	175	176	177
176	1	176	177	178
177	1	177	178	179
178	1	178	179	180
179	1	179	180	181
180	1	180	181	182
181	1	181	182	183
182	1	182	183	184
183	1	183	184	185
184	1	184	185	186
185	1	185	186	187
186	1	186	187	188
187	1	187	188	189
188	1	188	189	190
189	1	189	190	191
190	1	190	191	192
191	1	191	192	193
192	1	192	193	194
193	1	193	194	195
194	1	194	195	196
195	1	195	196	197
196	1	196	197	198
197	1	197	198	199
198	1	198	199	200
