bb900nuc0bl0bn0d30tot900

900 atoms
899 bonds
898 angles

1 atom types
1 bond types
1 angle types

-1000 1000 xlo xhi
-1000 1000 ylo yhi
-1000 1000 zlo zhi

Masses

1 1

Atoms

1	1	1	0.0	0.0	0.0	0	0	0
2	1	1	0.0	1.0	0.0	0	0	0
3	1	1	0.0	1.8660254037844388	0.49999999999999994	0	0	0
4	1	1	0.0	2.7320508075688776	0.0	0	0	0
5	1	1	0.0	3.5980762113533165	0.49999999999999994	0	0	0
6	1	1	0.0	4.464101615137755	0.0	0	0	0
7	1	1	0.0	5.330127018922194	0.49999999999999994	0	0	0
8	1	1	0.0	6.196152422706632	0.0	0	0	0
9	1	1	0.0	7.06217782649107	0.49999999999999994	0	0	0
10	1	1	0.0	7.928203230275509	0.0	0	0	0
11	1	1	0.0	8.794228634059948	0.49999999999999994	0	0	0
12	1	1	0.0	9.660254037844387	0.0	0	0	0
13	1	1	0.0	10.526279441628827	0.49999999999999994	0	0	0
14	1	1	0.0	11.392304845413266	0.0	0	0	0
15	1	1	0.0	12.258330249197705	0.49999999999999994	0	0	0
16	1	1	0.0	13.124355652982144	0.0	0	0	0
17	1	1	0.0	13.990381056766584	0.49999999999999994	0	0	0
18	1	1	0.0	14.856406460551023	0.0	0	0	0
19	1	1	0.0	15.722431864335462	0.49999999999999994	0	0	0
20	1	1	0.0	16.5884572681199	0.0	0	0	0
21	1	1	0.0	17.454482671904337	0.49999999999999994	0	0	0
22	1	1	0.0	18.320508075688775	0.0	0	0	0
23	1	1	0.0	19.186533479473212	0.49999999999999994	0	0	0
24	1	1	0.0	20.05255888325765	0.0	0	0	0
25	1	1	0.0	20.918584287042087	0.49999999999999994	0	0	0
26	1	1	0.0	21.784609690826525	0.0	0	0	0
27	1	1	0.0	22.650635094610962	0.49999999999999994	0	0	0
28	1	1	0.0	23.5166604983954	0.0	0	0	0
29	1	1	0.0	24.382685902179837	0.49999999999999994	0	0	0
30	1	1	0.0	25.248711305964274	0.0	0	0	0
31	1	1	0.0	26.114736709748712	0.49999999999999994	0	0	0
32	1	1	0.0	26.98076211353315	0.0	0	0	0
33	1	1	0.0	27.846787517317587	0.49999999999999994	0	0	0
34	1	1	0.0	28.712812921102024	0.0	0	0	0
35	1	1	0.0	29.578838324886462	0.49999999999999994	0	0	0
36	1	1	0.0	30.4448637286709	0.0	0	0	0
37	1	1	0.0	31.310889132455337	0.49999999999999994	0	0	0
38	1	1	0.0	32.17691453623978	0.0	0	0	0
39	1	1	0.0	33.04293994002422	0.49999999999999994	0	0	0
40	1	1	0.0	33.90896534380866	0.0	0	0	0
41	1	1	0.0	34.7749907475931	0.49999999999999994	0	0	0
42	1	1	0.0	35.64101615137754	0.0	0	0	0
43	1	1	0.0	36.50704155516198	0.49999999999999994	0	0	0
44	1	1	0.0	37.373066958946424	0.0	0	0	0
45	1	1	0.0	38.239092362730865	0.49999999999999994	0	0	0
46	1	1	0.0	39.105117766515306	0.0	0	0	0
47	1	1	0.0	39.97114317029975	0.49999999999999994	0	0	0
48	1	1	0.0	40.83716857408419	0.0	0	0	0
49	1	1	0.0	41.70319397786863	0.49999999999999994	0	0	0
50	1	1	0.0	42.56921938165307	0.0	0	0	0
51	1	1	0.0	43.43524478543751	0.49999999999999994	0	0	0
52	1	1	0.0	44.30127018922195	0.0	0	0	0
53	1	1	0.0	45.16729559300639	0.49999999999999994	0	0	0
54	1	1	0.0	46.033320996790835	0.0	0	0	0
55	1	1	0.0	46.899346400575276	0.49999999999999994	0	0	0
56	1	1	0.0	47.76537180435972	0.0	0	0	0
57	1	1	0.0	48.63139720814416	0.49999999999999994	0	0	0
58	1	1	0.0	49.4974226119286	0.0	0	0	0
59	1	1	0.0	50.36344801571304	0.49999999999999994	0	0	0
60	1	1	0.0	51.22947341949748	0.0	0	0	0
61	1	1	0.0	52.09549882328192	0.49999999999999994	0	0	0
62	1	1	0.0	52.96152422706636	0.0	0	0	0
63	1	1	0.0	53.827549630850804	0.49999999999999994	0	0	0
64	1	1	0.0	54.693575034635245	0.0	0	0	0
65	1	1	0.0	55.559600438419686	0.49999999999999994	0	0	0
66	1	1	0.0	56.42562584220413	0.0	0	0	0
67	1	1	0.0	57.29165124598857	0.49999999999999994	0	0	0
68	1	1	0.0	58.15767664977301	0.0	0	0	0
69	1	1	0.0	59.02370205355745	0.49999999999999994	0	0	0
70	1	1	0.0	59.88972745734189	0.0	0	0	0
71	1	1	0.0	60.75575286112633	0.49999999999999994	0	0	0
72	1	1	0.0	61.62177826491077	0.0	0	0	0
73	1	1	0.0	62.487803668695214	0.49999999999999994	0	0	0
74	1	1	0.0	63.353829072479655	0.0	0	0	0
75	1	1	0.0	64.21985447626409	0.49999999999999994	0	0	0
76	1	1	0.0	65.08587988004852	0.0	0	0	0
77	1	1	0.0	65.95190528383296	0.49999999999999994	0	0	0
78	1	1	0.0	66.81793068761739	0.0	0	0	0
79	1	1	0.0	67.68395609140183	0.49999999999999994	0	0	0
80	1	1	0.0	68.54998149518626	0.0	0	0	0
81	1	1	0.0	69.41600689897069	0.49999999999999994	0	0	0
82	1	1	0.0	70.28203230275513	0.0	0	0	0
83	1	1	0.0	71.14805770653956	0.49999999999999994	0	0	0
84	1	1	0.0	72.014083110324	0.0	0	0	0
85	1	1	0.0	72.88010851410843	0.49999999999999994	0	0	0
86	1	1	0.0	73.74613391789286	0.0	0	0	0
87	1	1	0.0	74.6121593216773	0.49999999999999994	0	0	0
88	1	1	0.0	75.47818472546173	0.0	0	0	0
89	1	1	0.0	76.34421012924616	0.49999999999999994	0	0	0
90	1	1	0.0	77.2102355330306	0.0	0	0	0
91	1	1	0.0	78.07626093681503	0.49999999999999994	0	0	0
92	1	1	0.0	78.94228634059947	0.0	0	0	0
93	1	1	0.0	79.8083117443839	0.49999999999999994	0	0	0
94	1	1	0.0	80.67433714816833	0.0	0	0	0
95	1	1	0.0	81.54036255195277	0.49999999999999994	0	0	0
96	1	1	0.0	82.4063879557372	0.0	0	0	0
97	1	1	0.0	83.27241335952164	0.49999999999999994	0	0	0
98	1	1	0.0	84.13843876330607	0.0	0	0	0
99	1	1	0.0	85.0044641670905	0.49999999999999994	0	0	0
100	1	1	0.0	85.87048957087494	0.0	0	0	0
101	1	1	0.0	86.73651497465937	0.49999999999999994	0	0	0
102	1	1	0.0	87.6025403784438	0.0	0	0	0
103	1	1	0.0	88.46856578222824	0.49999999999999994	0	0	0
104	1	1	0.0	89.33459118601267	0.0	0	0	0
105	1	1	0.0	90.20061658979711	0.49999999999999994	0	0	0
106	1	1	0.0	91.06664199358154	0.0	0	0	0
107	1	1	0.0	91.93266739736598	0.49999999999999994	0	0	0
108	1	1	0.0	92.79869280115041	0.0	0	0	0
109	1	1	0.0	93.66471820493484	0.49999999999999994	0	0	0
110	1	1	0.0	94.53074360871928	0.0	0	0	0
111	1	1	0.0	95.39676901250371	0.49999999999999994	0	0	0
112	1	1	0.0	96.26279441628814	0.0	0	0	0
113	1	1	0.0	97.12881982007258	0.49999999999999994	0	0	0
114	1	1	0.0	97.99484522385701	0.0	0	0	0
115	1	1	0.0	98.86087062764145	0.49999999999999994	0	0	0
116	1	1	0.0	99.72689603142588	0.0	0	0	0
117	1	1	0.0	100.59292143521031	0.49999999999999994	0	0	0
118	1	1	0.0	101.45894683899475	0.0	0	0	0
119	1	1	0.0	102.32497224277918	0.49999999999999994	0	0	0
120	1	1	0.0	103.19099764656362	0.0	0	0	0
121	1	1	0.0	104.05702305034805	0.49999999999999994	0	0	0
122	1	1	0.0	104.92304845413248	0.0	0	0	0
123	1	1	0.0	105.78907385791692	0.49999999999999994	0	0	0
124	1	1	0.0	106.65509926170135	0.0	0	0	0
125	1	1	0.0	107.52112466548579	0.49999999999999994	0	0	0
126	1	1	0.0	108.38715006927022	0.0	0	0	0
127	1	1	0.0	109.25317547305465	0.49999999999999994	0	0	0
128	1	1	0.0	110.11920087683909	0.0	0	0	0
129	1	1	0.0	110.98522628062352	0.49999999999999994	0	0	0
130	1	1	0.0	111.85125168440796	0.0	0	0	0
131	1	1	0.0	112.71727708819239	0.49999999999999994	0	0	0
132	1	1	0.0	113.58330249197682	0.0	0	0	0
133	1	1	0.0	114.44932789576126	0.49999999999999994	0	0	0
134	1	1	0.0	115.31535329954569	0.0	0	0	0
135	1	1	0.0	116.18137870333013	0.49999999999999994	0	0	0
136	1	1	0.0	117.04740410711456	0.0	0	0	0
137	1	1	0.0	117.913429510899	0.49999999999999994	0	0	0
138	1	1	0.0	118.77945491468343	0.0	0	0	0
139	1	1	0.0	119.64548031846786	0.49999999999999994	0	0	0
140	1	1	0.0	120.5115057222523	0.0	0	0	0
141	1	1	0.0	121.37753112603673	0.49999999999999994	0	0	0
142	1	1	0.0	122.24355652982116	0.0	0	0	0
143	1	1	0.0	123.1095819336056	0.49999999999999994	0	0	0
144	1	1	0.0	123.97560733739003	0.0	0	0	0
145	1	1	0.0	124.84163274117446	0.49999999999999994	0	0	0
146	1	1	0.0	125.7076581449589	0.0	0	0	0
147	1	1	0.0	126.57368354874333	0.49999999999999994	0	0	0
148	1	1	0.0	127.43970895252777	0.0	0	0	0
149	1	1	0.0	128.3057343563122	0.49999999999999994	0	0	0
150	1	1	0.0	129.17175976009665	0.0	0	0	0
151	1	1	0.0	130.0377851638811	0.49999999999999994	0	0	0
152	1	1	0.0	130.90381056766554	0.0	0	0	0
153	1	1	0.0	131.76983597145	0.49999999999999994	0	0	0
154	1	1	0.0	132.63586137523444	0.0	0	0	0
155	1	1	0.0	133.5018867790189	0.49999999999999994	0	0	0
156	1	1	0.0	134.36791218280334	0.0	0	0	0
157	1	1	0.0	135.23393758658779	0.49999999999999994	0	0	0
158	1	1	0.0	136.09996299037223	0.0	0	0	0
159	1	1	0.0	136.96598839415668	0.49999999999999994	0	0	0
160	1	1	0.0	137.83201379794113	0.0	0	0	0
161	1	1	0.0	138.69803920172558	0.49999999999999994	0	0	0
162	1	1	0.0	139.56406460551003	0.0	0	0	0
163	1	1	0.0	140.43009000929447	0.49999999999999994	0	0	0
164	1	1	0.0	141.29611541307892	0.0	0	0	0
165	1	1	0.0	142.16214081686337	0.49999999999999994	0	0	0
166	1	1	0.0	143.02816622064782	0.0	0	0	0
167	1	1	0.0	143.89419162443227	0.49999999999999994	0	0	0
168	1	1	0.0	144.76021702821672	0.0	0	0	0
169	1	1	0.0	145.62624243200116	0.49999999999999994	0	0	0
170	1	1	0.0	146.4922678357856	0.0	0	0	0
171	1	1	0.0	147.35829323957006	0.49999999999999994	0	0	0
172	1	1	0.0	148.2243186433545	0.0	0	0	0
173	1	1	0.0	149.09034404713896	0.49999999999999994	0	0	0
174	1	1	0.0	149.9563694509234	0.0	0	0	0
175	1	1	0.0	150.82239485470785	0.49999999999999994	0	0	0
176	1	1	0.0	151.6884202584923	0.0	0	0	0
177	1	1	0.0	152.55444566227675	0.49999999999999994	0	0	0
178	1	1	0.0	153.4204710660612	0.0	0	0	0
179	1	1	0.0	154.28649646984564	0.49999999999999994	0	0	0
180	1	1	0.0	155.1525218736301	0.0	0	0	0
181	1	1	0.0	156.01854727741454	0.49999999999999994	0	0	0
182	1	1	0.0	156.884572681199	0.0	0	0	0
183	1	1	0.0	157.75059808498344	0.49999999999999994	0	0	0
184	1	1	0.0	158.61662348876789	0.0	0	0	0
185	1	1	0.0	159.48264889255233	0.49999999999999994	0	0	0
186	1	1	0.0	160.34867429633678	0.0	0	0	0
187	1	1	0.0	161.21469970012123	0.49999999999999994	0	0	0
188	1	1	0.0	162.08072510390568	0.0	0	0	0
189	1	1	0.0	162.94675050769013	0.49999999999999994	0	0	0
190	1	1	0.0	163.81277591147457	0.0	0	0	0
191	1	1	0.0	164.67880131525902	0.49999999999999994	0	0	0
192	1	1	0.0	165.54482671904347	0.0	0	0	0
193	1	1	0.0	166.41085212282792	0.49999999999999994	0	0	0
194	1	1	0.0	167.27687752661237	0.0	0	0	0
195	1	1	0.0	168.14290293039682	0.49999999999999994	0	0	0
196	1	1	0.0	169.00892833418126	0.0	0	0	0
197	1	1	0.0	169.8749537379657	0.49999999999999994	0	0	0
198	1	1	0.0	170.74097914175016	0.0	0	0	0
199	1	1	0.0	171.6070045455346	0.49999999999999994	0	0	0
200	1	1	0.0	172.47302994931906	0.0	0	0	0
201	1	1	0.0	173.3390553531035	0.49999999999999994	0	0	0
202	1	1	0.0	174.20508075688795	0.0	0	0	0
203	1	1	0.0	175.0711061606724	0.49999999999999994	0	0	0
204	1	1	0.0	175.93713156445685	0.0	0	0	0
205	1	1	0.0	176.8031569682413	0.49999999999999994	0	0	0
206	1	1	0.0	177.66918237202574	0.0	0	0	0
207	1	1	0.0	178.5352077758102	0.49999999999999994	0	0	0
208	1	1	0.0	179.40123317959464	0.0	0	0	0
209	1	1	0.0	180.2672585833791	0.49999999999999994	0	0	0
210	1	1	0.0	181.13328398716354	0.0	0	0	0
211	1	1	0.0	181.99930939094799	0.49999999999999994	0	0	0
212	1	1	0.0	182.86533479473243	0.0	0	0	0
213	1	1	0.0	183.73136019851688	0.49999999999999994	0	0	0
214	1	1	0.0	184.59738560230133	0.0	0	0	0
215	1	1	0.0	185.46341100608578	0.49999999999999994	0	0	0
216	1	1	0.0	186.32943640987023	0.0	0	0	0
217	1	1	0.0	187.19546181365467	0.49999999999999994	0	0	0
218	1	1	0.0	188.06148721743912	0.0	0	0	0
219	1	1	0.0	188.92751262122357	0.49999999999999994	0	0	0
220	1	1	0.0	189.79353802500802	0.0	0	0	0
221	1	1	0.0	190.65956342879247	0.49999999999999994	0	0	0
222	1	1	0.0	191.52558883257691	0.0	0	0	0
223	1	1	0.0	192.39161423636136	0.49999999999999994	0	0	0
224	1	1	0.0	193.2576396401458	0.0	0	0	0
225	1	1	0.0	194.12366504393026	0.49999999999999994	0	0	0
226	1	1	0.0	194.9896904477147	0.0	0	0	0
227	1	1	0.0	195.85571585149916	0.49999999999999994	0	0	0
228	1	1	0.0	196.7217412552836	0.0	0	0	0
229	1	1	0.0	197.58776665906805	0.49999999999999994	0	0	0
230	1	1	0.0	198.4537920628525	0.0	0	0	0
231	1	1	0.0	199.31981746663695	0.49999999999999994	0	0	0
232	1	1	0.0	200.1858428704214	0.0	0	0	0
233	1	1	0.0	201.05186827420584	0.49999999999999994	0	0	0
234	1	1	0.0	201.9178936779903	0.0	0	0	0
235	1	1	0.0	202.78391908177474	0.49999999999999994	0	0	0
236	1	1	0.0	203.6499444855592	0.0	0	0	0
237	1	1	0.0	204.51596988934364	0.49999999999999994	0	0	0
238	1	1	0.0	205.38199529312809	0.0	0	0	0
239	1	1	0.0	206.24802069691253	0.49999999999999994	0	0	0
240	1	1	0.0	207.11404610069698	0.0	0	0	0
241	1	1	0.0	207.98007150448143	0.49999999999999994	0	0	0
242	1	1	0.0	208.84609690826588	0.0	0	0	0
243	1	1	0.0	209.71212231205033	0.49999999999999994	0	0	0
244	1	1	0.0	210.57814771583477	0.0	0	0	0
245	1	1	0.0	211.44417311961922	0.49999999999999994	0	0	0
246	1	1	0.0	212.31019852340367	0.0	0	0	0
247	1	1	0.0	213.17622392718812	0.49999999999999994	0	0	0
248	1	1	0.0	214.04224933097257	0.0	0	0	0
249	1	1	0.0	214.90827473475701	0.49999999999999994	0	0	0
250	1	1	0.0	215.77430013854146	0.0	0	0	0
251	1	1	0.0	216.6403255423259	0.49999999999999994	0	0	0
252	1	1	0.0	217.50635094611036	0.0	0	0	0
253	1	1	0.0	218.3723763498948	0.49999999999999994	0	0	0
254	1	1	0.0	219.23840175367926	0.0	0	0	0
255	1	1	0.0	220.1044271574637	0.49999999999999994	0	0	0
256	1	1	0.0	220.97045256124815	0.0	0	0	0
257	1	1	0.0	221.8364779650326	0.49999999999999994	0	0	0
258	1	1	0.0	222.70250336881705	0.0	0	0	0
259	1	1	0.0	223.5685287726015	0.49999999999999994	0	0	0
260	1	1	0.0	224.43455417638594	0.0	0	0	0
261	1	1	0.0	225.3005795801704	0.49999999999999994	0	0	0
262	1	1	0.0	226.16660498395484	0.0	0	0	0
263	1	1	0.0	227.0326303877393	0.49999999999999994	0	0	0
264	1	1	0.0	227.89865579152374	0.0	0	0	0
265	1	1	0.0	228.76468119530819	0.49999999999999994	0	0	0
266	1	1	0.0	229.63070659909263	0.0	0	0	0
267	1	1	0.0	230.49673200287708	0.49999999999999994	0	0	0
268	1	1	0.0	231.36275740666153	0.0	0	0	0
269	1	1	0.0	232.22878281044598	0.49999999999999994	0	0	0
270	1	1	0.0	233.09480821423043	0.0	0	0	0
271	1	1	0.0	233.96083361801487	0.49999999999999994	0	0	0
272	1	1	0.0	234.82685902179932	0.0	0	0	0
273	1	1	0.0	235.69288442558377	0.49999999999999994	0	0	0
274	1	1	0.0	236.55890982936822	0.0	0	0	0
275	1	1	0.0	237.42493523315267	0.49999999999999994	0	0	0
276	1	1	0.0	238.29096063693711	0.0	0	0	0
277	1	1	0.0	239.15698604072156	0.49999999999999994	0	0	0
278	1	1	0.0	240.023011444506	0.0	0	0	0
279	1	1	0.0	240.88903684829046	0.49999999999999994	0	0	0
280	1	1	0.0	241.7550622520749	0.0	0	0	0
281	1	1	0.0	242.62108765585936	0.49999999999999994	0	0	0
282	1	1	0.0	243.4871130596438	0.0	0	0	0
283	1	1	0.0	244.35313846342825	0.49999999999999994	0	0	0
284	1	1	0.0	245.2191638672127	0.0	0	0	0
285	1	1	0.0	246.08518927099715	0.49999999999999994	0	0	0
286	1	1	0.0	246.9512146747816	0.0	0	0	0
287	1	1	0.0	247.81724007856604	0.49999999999999994	0	0	0
288	1	1	0.0	248.6832654823505	0.0	0	0	0
289	1	1	0.0	249.54929088613494	0.49999999999999994	0	0	0
290	1	1	0.0	250.4153162899194	0.0	0	0	0
291	1	1	0.0	251.28134169370384	0.49999999999999994	0	0	0
292	1	1	0.0	252.14736709748829	0.0	0	0	0
293	1	1	0.0	253.01339250127273	0.49999999999999994	0	0	0
294	1	1	0.0	253.87941790505718	0.0	0	0	0
295	1	1	0.0	254.74544330884163	0.49999999999999994	0	0	0
296	1	1	0.0	255.61146871262608	0.0	0	0	0
297	1	1	0.0	256.4774941164105	0.49999999999999994	0	0	0
298	1	1	0.0	257.34351952019495	0.0	0	0	0
299	1	1	0.0	258.20954492397937	0.49999999999999994	0	0	0
300	1	1	0.0	259.0755703277638	0.0	0	0	0
301	1	1	0.0	259.9415957315482	0.49999999999999994	0	0	0
302	1	1	0.0	260.8076211353326	0.0	0	0	0
303	1	1	0.0	261.67364653911704	0.49999999999999994	0	0	0
304	1	1	0.0	262.53967194290146	0.0	0	0	0
305	1	1	0.0	263.4056973466859	0.49999999999999994	0	0	0
306	1	1	0.0	264.2717227504703	0.0	0	0	0
307	1	1	0.0	265.1377481542547	0.49999999999999994	0	0	0
308	1	1	0.0	266.00377355803914	0.0	0	0	0
309	1	1	0.0	266.86979896182356	0.49999999999999994	0	0	0
310	1	1	0.0	267.735824365608	0.0	0	0	0
311	1	1	0.0	268.6018497693924	0.49999999999999994	0	0	0
312	1	1	0.0	269.4678751731768	0.0	0	0	0
313	1	1	0.0	270.33390057696124	0.49999999999999994	0	0	0
314	1	1	0.0	271.19992598074566	0.0	0	0	0
315	1	1	0.0	272.0659513845301	0.49999999999999994	0	0	0
316	1	1	0.0	272.9319767883145	0.0	0	0	0
317	1	1	0.0	273.7980021920989	0.49999999999999994	0	0	0
318	1	1	0.0	274.66402759588334	0.0	0	0	0
319	1	1	0.0	275.53005299966776	0.49999999999999994	0	0	0
320	1	1	0.0	276.3960784034522	0.0	0	0	0
321	1	1	0.0	277.2621038072366	0.49999999999999994	0	0	0
322	1	1	0.0	278.128129211021	0.0	0	0	0
323	1	1	0.0	278.99415461480544	0.49999999999999994	0	0	0
324	1	1	0.0	279.86018001858986	0.0	0	0	0
325	1	1	0.0	280.7262054223743	0.49999999999999994	0	0	0
326	1	1	0.0	281.5922308261587	0.0	0	0	0
327	1	1	0.0	282.4582562299431	0.49999999999999994	0	0	0
328	1	1	0.0	283.32428163372754	0.0	0	0	0
329	1	1	0.0	284.19030703751196	0.49999999999999994	0	0	0
330	1	1	0.0	285.0563324412964	0.0	0	0	0
331	1	1	0.0	285.9223578450808	0.49999999999999994	0	0	0
332	1	1	0.0	286.7883832488652	0.0	0	0	0
333	1	1	0.0	287.65440865264964	0.49999999999999994	0	0	0
334	1	1	0.0	288.52043405643406	0.0	0	0	0
335	1	1	0.0	289.3864594602185	0.49999999999999994	0	0	0
336	1	1	0.0	290.2524848640029	0.0	0	0	0
337	1	1	0.0	291.1185102677873	0.49999999999999994	0	0	0
338	1	1	0.0	291.98453567157173	0.0	0	0	0
339	1	1	0.0	292.85056107535615	0.49999999999999994	0	0	0
340	1	1	0.0	293.7165864791406	0.0	0	0	0
341	1	1	0.0	294.582611882925	0.49999999999999994	0	0	0
342	1	1	0.0	295.4486372867094	0.0	0	0	0
343	1	1	0.0	296.31466269049383	0.49999999999999994	0	0	0
344	1	1	0.0	297.18068809427825	0.0	0	0	0
345	1	1	0.0	298.0467134980627	0.49999999999999994	0	0	0
346	1	1	0.0	298.9127389018471	0.0	0	0	0
347	1	1	0.0	299.7787643056315	0.49999999999999994	0	0	0
348	1	1	0.0	300.64478970941593	0.0	0	0	0
349	1	1	0.0	301.51081511320035	0.49999999999999994	0	0	0
350	1	1	0.0	302.37684051698477	0.0	0	0	0
351	1	1	0.0	303.2428659207692	0.49999999999999994	0	0	0
352	1	1	0.0	304.1088913245536	0.0	0	0	0
353	1	1	0.0	304.97491672833803	0.49999999999999994	0	0	0
354	1	1	0.0	305.84094213212245	0.0	0	0	0
355	1	1	0.0	306.70696753590687	0.49999999999999994	0	0	0
356	1	1	0.0	307.5729929396913	0.0	0	0	0
357	1	1	0.0	308.4390183434757	0.49999999999999994	0	0	0
358	1	1	0.0	309.30504374726013	0.0	0	0	0
359	1	1	0.0	310.17106915104455	0.49999999999999994	0	0	0
360	1	1	0.0	311.03709455482897	0.0	0	0	0
361	1	1	0.0	311.9031199586134	0.49999999999999994	0	0	0
362	1	1	0.0	312.7691453623978	0.0	0	0	0
363	1	1	0.0	313.6351707661822	0.49999999999999994	0	0	0
364	1	1	0.0	314.50119616996665	0.0	0	0	0
365	1	1	0.0	315.36722157375107	0.49999999999999994	0	0	0
366	1	1	0.0	316.2332469775355	0.0	0	0	0
367	1	1	0.0	317.0992723813199	0.49999999999999994	0	0	0
368	1	1	0.0	317.9652977851043	0.0	0	0	0
369	1	1	0.0	318.83132318888875	0.49999999999999994	0	0	0
370	1	1	0.0	319.69734859267317	0.0	0	0	0
371	1	1	0.0	320.5633739964576	0.49999999999999994	0	0	0
372	1	1	0.0	321.429399400242	0.0	0	0	0
373	1	1	0.0	322.2954248040264	0.49999999999999994	0	0	0
374	1	1	0.0	323.16145020781084	0.0	0	0	0
375	1	1	0.0	324.02747561159526	0.49999999999999994	0	0	0
376	1	1	0.0	324.8935010153797	0.0	0	0	0
377	1	1	0.0	325.7595264191641	0.49999999999999994	0	0	0
378	1	1	0.0	326.6255518229485	0.0	0	0	0
379	1	1	0.0	327.49157722673294	0.49999999999999994	0	0	0
380	1	1	0.0	328.35760263051736	0.0	0	0	0
381	1	1	0.0	329.2236280343018	0.49999999999999994	0	0	0
382	1	1	0.0	330.0896534380862	0.0	0	0	0
383	1	1	0.0	330.9556788418706	0.49999999999999994	0	0	0
384	1	1	0.0	331.82170424565504	0.0	0	0	0
385	1	1	0.0	332.68772964943946	0.49999999999999994	0	0	0
386	1	1	0.0	333.5537550532239	0.0	0	0	0
387	1	1	0.0	334.4197804570083	0.49999999999999994	0	0	0
388	1	1	0.0	335.2858058607927	0.0	0	0	0
389	1	1	0.0	336.15183126457714	0.49999999999999994	0	0	0
390	1	1	0.0	337.01785666836156	0.0	0	0	0
391	1	1	0.0	337.883882072146	0.49999999999999994	0	0	0
392	1	1	0.0	338.7499074759304	0.0	0	0	0
393	1	1	0.0	339.6159328797148	0.49999999999999994	0	0	0
394	1	1	0.0	340.48195828349924	0.0	0	0	0
395	1	1	0.0	341.34798368728366	0.49999999999999994	0	0	0
396	1	1	0.0	342.2140090910681	0.0	0	0	0
397	1	1	0.0	343.0800344948525	0.49999999999999994	0	0	0
398	1	1	0.0	343.9460598986369	0.0	0	0	0
399	1	1	0.0	344.81208530242134	0.49999999999999994	0	0	0
400	1	1	0.0	345.67811070620576	0.0	0	0	0
401	1	1	0.0	346.5441361099902	0.49999999999999994	0	0	0
402	1	1	0.0	347.4101615137746	0.0	0	0	0
403	1	1	0.0	348.276186917559	0.49999999999999994	0	0	0
404	1	1	0.0	349.14221232134344	0.0	0	0	0
405	1	1	0.0	350.00823772512786	0.49999999999999994	0	0	0
406	1	1	0.0	350.8742631289123	0.0	0	0	0
407	1	1	0.0	351.7402885326967	0.49999999999999994	0	0	0
408	1	1	0.0	352.6063139364811	0.0	0	0	0
409	1	1	0.0	353.47233934026553	0.49999999999999994	0	0	0
410	1	1	0.0	354.33836474404995	0.0	0	0	0
411	1	1	0.0	355.2043901478344	0.49999999999999994	0	0	0
412	1	1	0.0	356.0704155516188	0.0	0	0	0
413	1	1	0.0	356.9364409554032	0.49999999999999994	0	0	0
414	1	1	0.0	357.80246635918763	0.0	0	0	0
415	1	1	0.0	358.66849176297205	0.49999999999999994	0	0	0
416	1	1	0.0	359.5345171667565	0.0	0	0	0
417	1	1	0.0	360.4005425705409	0.49999999999999994	0	0	0
418	1	1	0.0	361.2665679743253	0.0	0	0	0
419	1	1	0.0	362.13259337810973	0.49999999999999994	0	0	0
420	1	1	0.0	362.99861878189415	0.0	0	0	0
421	1	1	0.0	363.86464418567857	0.49999999999999994	0	0	0
422	1	1	0.0	364.730669589463	0.0	0	0	0
423	1	1	0.0	365.5966949932474	0.49999999999999994	0	0	0
424	1	1	0.0	366.46272039703183	0.0	0	0	0
425	1	1	0.0	367.32874580081625	0.49999999999999994	0	0	0
426	1	1	0.0	368.19477120460067	0.0	0	0	0
427	1	1	0.0	369.0607966083851	0.49999999999999994	0	0	0
428	1	1	0.0	369.9268220121695	0.0	0	0	0
429	1	1	0.0	370.79284741595393	0.49999999999999994	0	0	0
430	1	1	0.0	371.65887281973835	0.0	0	0	0
431	1	1	0.0	372.52489822352277	0.49999999999999994	0	0	0
432	1	1	0.0	373.3909236273072	0.0	0	0	0
433	1	1	0.0	374.2569490310916	0.49999999999999994	0	0	0
434	1	1	0.0	375.122974434876	0.0	0	0	0
435	1	1	0.0	375.98899983866045	0.49999999999999994	0	0	0
436	1	1	0.0	376.85502524244487	0.0	0	0	0
437	1	1	0.0	377.7210506462293	0.49999999999999994	0	0	0
438	1	1	0.0	378.5870760500137	0.0	0	0	0
439	1	1	0.0	379.4531014537981	0.49999999999999994	0	0	0
440	1	1	0.0	380.31912685758255	0.0	0	0	0
441	1	1	0.0	381.18515226136697	0.49999999999999994	0	0	0
442	1	1	0.0	382.0511776651514	0.0	0	0	0
443	1	1	0.0	382.9172030689358	0.49999999999999994	0	0	0
444	1	1	0.0	383.7832284727202	0.0	0	0	0
445	1	1	0.0	384.64925387650464	0.49999999999999994	0	0	0
446	1	1	0.0	385.51527928028906	0.0	0	0	0
447	1	1	0.0	386.3813046840735	0.49999999999999994	0	0	0
448	1	1	0.0	387.2473300878579	0.0	0	0	0
449	1	1	0.0	388.1133554916423	0.49999999999999994	0	0	0
450	1	1	0.0	388.97938089542674	0.0	0	0	0
451	1	1	0.0	389.84540629921116	0.49999999999999994	0	0	0
452	1	1	0.0	390.7114317029956	0.0	0	0	0
453	1	1	0.0	391.57745710678	0.49999999999999994	0	0	0
454	1	1	0.0	392.4434825105644	0.0	0	0	0
455	1	1	0.0	393.30950791434884	0.49999999999999994	0	0	0
456	1	1	0.0	394.17553331813326	0.0	0	0	0
457	1	1	0.0	395.0415587219177	0.49999999999999994	0	0	0
458	1	1	0.0	395.9075841257021	0.0	0	0	0
459	1	1	0.0	396.7736095294865	0.49999999999999994	0	0	0
460	1	1	0.0	397.63963493327094	0.0	0	0	0
461	1	1	0.0	398.50566033705536	0.49999999999999994	0	0	0
462	1	1	0.0	399.3716857408398	0.0	0	0	0
463	1	1	0.0	400.2377111446242	0.49999999999999994	0	0	0
464	1	1	0.0	401.1037365484086	0.0	0	0	0
465	1	1	0.0	401.96976195219304	0.49999999999999994	0	0	0
466	1	1	0.0	402.83578735597746	0.0	0	0	0
467	1	1	0.0	403.7018127597619	0.49999999999999994	0	0	0
468	1	1	0.0	404.5678381635463	0.0	0	0	0
469	1	1	0.0	405.4338635673307	0.49999999999999994	0	0	0
470	1	1	0.0	406.29988897111514	0.0	0	0	0
471	1	1	0.0	407.16591437489956	0.49999999999999994	0	0	0
472	1	1	0.0	408.031939778684	0.0	0	0	0
473	1	1	0.0	408.8979651824684	0.49999999999999994	0	0	0
474	1	1	0.0	409.7639905862528	0.0	0	0	0
475	1	1	0.0	410.63001599003724	0.49999999999999994	0	0	0
476	1	1	0.0	411.49604139382166	0.0	0	0	0
477	1	1	0.0	412.3620667976061	0.49999999999999994	0	0	0
478	1	1	0.0	413.2280922013905	0.0	0	0	0
479	1	1	0.0	414.0941176051749	0.49999999999999994	0	0	0
480	1	1	0.0	414.96014300895934	0.0	0	0	0
481	1	1	0.0	415.82616841274375	0.49999999999999994	0	0	0
482	1	1	0.0	416.6921938165282	0.0	0	0	0
483	1	1	0.0	417.5582192203126	0.49999999999999994	0	0	0
484	1	1	0.0	418.424244624097	0.0	0	0	0
485	1	1	0.0	419.29027002788143	0.49999999999999994	0	0	0
486	1	1	0.0	420.15629543166585	0.0	0	0	0
487	1	1	0.0	421.0223208354503	0.49999999999999994	0	0	0
488	1	1	0.0	421.8883462392347	0.0	0	0	0
489	1	1	0.0	422.7543716430191	0.49999999999999994	0	0	0
490	1	1	0.0	423.62039704680353	0.0	0	0	0
491	1	1	0.0	424.48642245058795	0.49999999999999994	0	0	0
492	1	1	0.0	425.3524478543724	0.0	0	0	0
493	1	1	0.0	426.2184732581568	0.49999999999999994	0	0	0
494	1	1	0.0	427.0844986619412	0.0	0	0	0
495	1	1	0.0	427.95052406572563	0.49999999999999994	0	0	0
496	1	1	0.0	428.81654946951005	0.0	0	0	0
497	1	1	0.0	429.68257487329447	0.49999999999999994	0	0	0
498	1	1	0.0	430.5486002770789	0.0	0	0	0
499	1	1	0.0	431.4146256808633	0.49999999999999994	0	0	0
500	1	1	0.0	432.28065108464773	0.0	0	0	0
501	1	1	0.0	433.14667648843215	0.49999999999999994	0	0	0
502	1	1	0.0	434.01270189221657	0.0	0	0	0
503	1	1	0.0	434.878727296001	0.49999999999999994	0	0	0
504	1	1	0.0	435.7447526997854	0.0	0	0	0
505	1	1	0.0	436.6107781035698	0.49999999999999994	0	0	0
506	1	1	0.0	437.47680350735425	0.0	0	0	0
507	1	1	0.0	438.34282891113867	0.49999999999999994	0	0	0
508	1	1	0.0	439.2088543149231	0.0	0	0	0
509	1	1	0.0	440.0748797187075	0.49999999999999994	0	0	0
510	1	1	0.0	440.9409051224919	0.0	0	0	0
511	1	1	0.0	441.80693052627635	0.49999999999999994	0	0	0
512	1	1	0.0	442.67295593006077	0.0	0	0	0
513	1	1	0.0	443.5389813338452	0.49999999999999994	0	0	0
514	1	1	0.0	444.4050067376296	0.0	0	0	0
515	1	1	0.0	445.271032141414	0.49999999999999994	0	0	0
516	1	1	0.0	446.13705754519845	0.0	0	0	0
517	1	1	0.0	447.00308294898286	0.49999999999999994	0	0	0
518	1	1	0.0	447.8691083527673	0.0	0	0	0
519	1	1	0.0	448.7351337565517	0.49999999999999994	0	0	0
520	1	1	0.0	449.6011591603361	0.0	0	0	0
521	1	1	0.0	450.46718456412054	0.49999999999999994	0	0	0
522	1	1	0.0	451.33320996790496	0.0	0	0	0
523	1	1	0.0	452.1992353716894	0.49999999999999994	0	0	0
524	1	1	0.0	453.0652607754738	0.0	0	0	0
525	1	1	0.0	453.9312861792582	0.49999999999999994	0	0	0
526	1	1	0.0	454.79731158304264	0.0	0	0	0
527	1	1	0.0	455.66333698682706	0.49999999999999994	0	0	0
528	1	1	0.0	456.5293623906115	0.0	0	0	0
529	1	1	0.0	457.3953877943959	0.49999999999999994	0	0	0
530	1	1	0.0	458.2614131981803	0.0	0	0	0
531	1	1	0.0	459.12743860196474	0.49999999999999994	0	0	0
532	1	1	0.0	459.99346400574916	0.0	0	0	0
533	1	1	0.0	460.8594894095336	0.49999999999999994	0	0	0
534	1	1	0.0	461.725514813318	0.0	0	0	0
535	1	1	0.0	462.5915402171024	0.49999999999999994	0	0	0
536	1	1	0.0	463.45756562088684	0.0	0	0	0
537	1	1	0.0	464.32359102467126	0.49999999999999994	0	0	0
538	1	1	0.0	465.1896164284557	0.0	0	0	0
539	1	1	0.0	466.0556418322401	0.49999999999999994	0	0	0
540	1	1	0.0	466.9216672360245	0.0	0	0	0
541	1	1	0.0	467.78769263980894	0.49999999999999994	0	0	0
542	1	1	0.0	468.65371804359336	0.0	0	0	0
543	1	1	0.0	469.5197434473778	0.49999999999999994	0	0	0
544	1	1	0.0	470.3857688511622	0.0	0	0	0
545	1	1	0.0	471.2517942549466	0.49999999999999994	0	0	0
546	1	1	0.0	472.11781965873104	0.0	0	0	0
547	1	1	0.0	472.98384506251546	0.49999999999999994	0	0	0
548	1	1	0.0	473.8498704662999	0.0	0	0	0
549	1	1	0.0	474.7158958700843	0.49999999999999994	0	0	0
550	1	1	0.0	475.5819212738687	0.0	0	0	0
551	1	1	0.0	476.44794667765314	0.49999999999999994	0	0	0
552	1	1	0.0	477.31397208143756	0.0	0	0	0
553	1	1	0.0	478.179997485222	0.49999999999999994	0	0	0
554	1	1	0.0	479.0460228890064	0.0	0	0	0
555	1	1	0.0	479.9120482927908	0.49999999999999994	0	0	0
556	1	1	0.0	480.77807369657523	0.0	0	0	0
557	1	1	0.0	481.64409910035965	0.49999999999999994	0	0	0
558	1	1	0.0	482.5101245041441	0.0	0	0	0
559	1	1	0.0	483.3761499079285	0.49999999999999994	0	0	0
560	1	1	0.0	484.2421753117129	0.0	0	0	0
561	1	1	0.0	485.10820071549733	0.49999999999999994	0	0	0
562	1	1	0.0	485.97422611928175	0.0	0	0	0
563	1	1	0.0	486.8402515230662	0.49999999999999994	0	0	0
564	1	1	0.0	487.7062769268506	0.0	0	0	0
565	1	1	0.0	488.572302330635	0.49999999999999994	0	0	0
566	1	1	0.0	489.43832773441943	0.0	0	0	0
567	1	1	0.0	490.30435313820385	0.49999999999999994	0	0	0
568	1	1	0.0	491.17037854198827	0.0	0	0	0
569	1	1	0.0	492.0364039457727	0.49999999999999994	0	0	0
570	1	1	0.0	492.9024293495571	0.0	0	0	0
571	1	1	0.0	493.76845475334153	0.49999999999999994	0	0	0
572	1	1	0.0	494.63448015712595	0.0	0	0	0
573	1	1	0.0	495.50050556091037	0.49999999999999994	0	0	0
574	1	1	0.0	496.3665309646948	0.0	0	0	0
575	1	1	0.0	497.2325563684792	0.49999999999999994	0	0	0
576	1	1	0.0	498.0985817722636	0.0	0	0	0
577	1	1	0.0	498.96460717604805	0.49999999999999994	0	0	0
578	1	1	0.0	499.83063257983247	0.0	0	0	0
579	1	1	0.0	500.6966579836169	0.49999999999999994	0	0	0
580	1	1	0.0	501.5626833874013	0.0	0	0	0
581	1	1	0.0	502.4287087911857	0.49999999999999994	0	0	0
582	1	1	0.0	503.29473419497015	0.0	0	0	0
583	1	1	0.0	504.16075959875457	0.49999999999999994	0	0	0
584	1	1	0.0	505.026785002539	0.0	0	0	0
585	1	1	0.0	505.8928104063234	0.49999999999999994	0	0	0
586	1	1	0.0	506.7588358101078	0.0	0	0	0
587	1	1	0.0	507.62486121389225	0.49999999999999994	0	0	0
588	1	1	0.0	508.49088661767667	0.0	0	0	0
589	1	1	0.0	509.3569120214611	0.49999999999999994	0	0	0
590	1	1	0.0	510.2229374252455	0.0	0	0	0
591	1	1	0.0	511.0889628290299	0.49999999999999994	0	0	0
592	1	1	0.0	511.95498823281434	0.0	0	0	0
593	1	1	0.0	512.8210136365988	0.49999999999999994	0	0	0
594	1	1	0.0	513.6870390403832	0.0	0	0	0
595	1	1	0.0	514.5530644441676	0.49999999999999994	0	0	0
596	1	1	0.0	515.419089847952	0.0	0	0	0
597	1	1	0.0	516.2851152517364	0.49999999999999994	0	0	0
598	1	1	0.0	517.1511406555209	0.0	0	0	0
599	1	1	0.0	518.0171660593053	0.49999999999999994	0	0	0
600	1	1	0.0	518.8831914630897	0.0	0	0	0
601	1	1	0.0	519.7492168668741	0.49999999999999994	0	0	0
602	1	1	0.0	520.6152422706585	0.0	0	0	0
603	1	1	0.0	521.481267674443	0.49999999999999994	0	0	0
604	1	1	0.0	522.3472930782274	0.0	0	0	0
605	1	1	0.0	523.2133184820118	0.49999999999999994	0	0	0
606	1	1	0.0	524.0793438857962	0.0	0	0	0
607	1	1	0.0	524.9453692895806	0.49999999999999994	0	0	0
608	1	1	0.0	525.8113946933651	0.0	0	0	0
609	1	1	0.0	526.6774200971495	0.49999999999999994	0	0	0
610	1	1	0.0	527.5434455009339	0.0	0	0	0
611	1	1	0.0	528.4094709047183	0.49999999999999994	0	0	0
612	1	1	0.0	529.2754963085027	0.0	0	0	0
613	1	1	0.0	530.1415217122872	0.49999999999999994	0	0	0
614	1	1	0.0	531.0075471160716	0.0	0	0	0
615	1	1	0.0	531.873572519856	0.49999999999999994	0	0	0
616	1	1	0.0	532.7395979236404	0.0	0	0	0
617	1	1	0.0	533.6056233274248	0.49999999999999994	0	0	0
618	1	1	0.0	534.4716487312093	0.0	0	0	0