bb120nuc3bl30bn4d30tot300

301 atoms
300 bonds
308 angles

1 atom types
1 bond types
1 angle types

-1000 1000 xlo xhi
-1000 1000 ylo yhi
-1000 1000 zlo zhi

Masses

1 1

Atoms

1	1	1	0.0	0.0	0.0	0	0	0
2	1	1	0.0	0.0	1.0	0	0	0
3	1	1	0.0	-0.49999999999999994	1.8660254037844388	0	0	0
4	1	1	0.0	0.0	2.7320508075688776	0	0	0
5	1	1	0.0	-0.49999999999999994	3.5980762113533165	0	0	0
6	1	1	0.0	0.0	4.464101615137755	0	0	0
7	1	1	0.0	-0.49999999999999994	5.330127018922194	0	0	0
8	1	1	0.0	0.0	6.196152422706632	0	0	0
9	1	1	0.0	-0.49999999999999994	7.06217782649107	0	0	0
10	1	1	0.0	0.0	7.928203230275509	0	0	0
11	1	1	0.0	-0.49999999999999994	8.794228634059948	0	0	0
12	1	1	0.0	0.0	9.660254037844387	0	0	0
13	1	1	0.0	-0.49999999999999994	10.526279441628827	0	0	0
14	1	1	0.0	0.0	11.392304845413266	0	0	0
15	1	1	0.0	-0.49999999999999994	12.258330249197705	0	0	0
16	1	1	0.0	0.0	13.124355652982144	0	0	0
17	1	1	0.0	-0.49999999999999994	13.990381056766584	0	0	0
18	1	1	0.0	0.0	14.856406460551023	0	0	0
19	1	1	0.0	-0.49999999999999994	15.722431864335462	0	0	0
20	1	1	0.0	0.0	16.5884572681199	0	0	0
21	1	1	0.0	-0.49999999999999994	17.454482671904337	0	0	0
22	1	1	0.0	0.0	18.320508075688775	0	0	0
23	1	1	0.0	-0.49999999999999994	19.186533479473212	0	0	0
24	1	1	0.0	0.0	20.05255888325765	0	0	0
25	1	1	0.0	-0.49999999999999994	20.918584287042087	0	0	0
26	1	1	0.0	0.0	21.784609690826525	0	0	0
27	1	1	0.0	-0.49999999999999994	22.650635094610962	0	0	0
28	1	1	0.0	0.0	23.5166604983954	0	0	0
29	1	1	0.0	-0.49999999999999994	24.382685902179837	0	0	0
30	1	1	0.0	0.0	25.248711305964274	0	0	0
31	1	1	0.0	-0.49999999999999994	26.114736709748712	0	0	0
32	1	1	-0.37799875732631094	0.08093842541744317	26.835588626117993	0	0	0
33	1	1	-0.7559975146526223	0.22361990167884038	27.750333910769207	0	0	0
34	1	1	-1.1339962719789338	1.0871532943095188	28.08414077000298	0	0	0
35	1	1	-1.511995029305245	1.229834770570916	28.998886054654193	0	0	0
36	1	1	-1.8899937866315564	2.0933681632015944	29.332692913887964	0	0	0
37	1	1	-2.2679925439578676	2.2360496394629914	30.24743819853918	0	0	0
38	1	1	-2.645991301284179	3.09958303209367	30.58124505777295	0	0	0
39	1	1	-3.02399005861049	3.242264508355067	31.495990342424165	0	0	0
40	1	1	-3.4019888159368015	4.1057979009857455	31.829797201657936	0	0	0
41	1	1	-3.7799875732631127	4.2484793772471425	32.74454248630915	0	0	0
42	1	1	-4.1579863305894245	5.112012769877821	33.078349345542925	0	0	0
43	1	1	-4.535985087915736	5.254694246139218	33.99309463019414	0	0	0
44	1	1	-4.913983845242048	6.118227638769897	34.32690148942792	0	0	0
45	1	1	-5.29198260256836	6.260909115031294	35.241646774079136	0	0	0
46	1	1	-5.669981359894671	7.124442507661972	35.57545363331291	0	0	0
47	1	1	-6.047980117220983	7.267123983923369	36.49019891796413	0	0	0
48	1	1	-6.425978874547295	8.130657376554048	36.824005777197904	0	0	0
49	1	1	-6.8039776318736065	8.273338852815446	37.73875106184912	0	0	0
50	1	1	-7.181976389199918	9.136872245446124	38.0725579210829	0	0	0
51	1	1	-7.55997514652623	9.279553721707522	38.987303205734115	0	0	0
52	1	1	-7.937973903852542	10.1430871143382	39.32111006496789	0	0	0
53	1	1	-8.315972661178852	10.285768590599599	40.23585534961911	0	0	0
54	1	1	-8.693971418505164	11.149301983230277	40.56966220885288	0	0	0
55	1	1	-9.071970175831476	11.291983459491675	41.4844074935041	0	0	0
56	1	1	-9.449968933157788	12.155516852122354	41.818214352737876	0	0	0
57	1	1	-9.8279676904841	12.298198328383751	42.732959637389094	0	0	0
58	1	1	-10.205966447810411	13.16173172101443	43.06676649662287	0	0	0
59	1	1	-10.583965205136723	13.304413197275828	43.98151178127409	0	0	0
60	1	1	-10.961963962463035	14.167946589906506	44.31531864050786	0	0	0
61	1	1	-11.339962719789346	14.310628066167904	45.23006392515908	0	0	0
62	1	1	0.9368412336974845	-0.7573252891393144	26.35161684486675	0	0	0
63	1	1	1.8736824673949701	-1.098615594129157	26.428098414961205	0	0	0
64	1	1	2.810523701092456	-1.2030257640009594	26.761905274194977	0	0	0
65	1	1	3.7473649347899416	-1.5443160689908022	26.83838684428943	0	0	0
66	1	1	4.684206168487427	-1.6487262388626045	27.172193703523202	0	0	0
67	1	1	5.621047402184913	-1.9900165438524473	27.248675273617657	0	0	0
68	1	1	6.5578886358823985	-2.0944267137242494	27.58248213285143	0	0	0
69	1	1	7.494729869579884	-2.435717018714092	27.658963702945883	0	0	0
70	1	1	8.43157110327737	-2.540127188585894	27.992770562179654	0	0	0
71	1	1	9.368412336974856	-2.8814174935757366	28.06925213227411	0	0	0
72	1	1	10.305253570672342	-2.9858276634475387	28.40305899150788	0	0	0
73	1	1	11.242094804369827	-3.3271179684373813	28.479540561602334	0	0	0
74	1	1	12.178936038067313	-3.4315281383091834	28.813347420836106	0	0	0
75	1	1	13.115777271764799	-3.772818443299026	28.88982899093056	0	0	0
76	1	1	14.052618505462284	-3.877228613170828	29.22363585016433	0	0	0
77	1	1	14.98945973915977	-4.218518918160671	29.300117420258786	0	0	0
78	1	1	15.926300972857256	-4.322929088032473	29.633924279492557	0	0	0
79	1	1	16.86314220655474	-4.664219393022316	29.710405849587012	0	0	0
80	1	1	17.799983440252227	-4.768629562894119	30.044212708820783	0	0	0
81	1	1	18.736824673949712	-5.109919867883962	30.120694278915238	0	0	0
82	1	1	19.673665907647198	-5.214330037755764	30.45450113814901	0	0	0
83	1	1	20.610507141344684	-5.555620342745607	30.530982708243464	0	0	0
84	1	1	21.54734837504217	-5.66003051261741	30.864789567477235	0	0	0
85	1	1	22.484189608739655	-6.001320817607253	30.94127113757169	0	0	0
86	1	1	23.42103084243714	-6.105730987479055	31.27507799680546	0	0	0
87	1	1	24.357872076134626	-6.447021292468898	31.351559566899915	0	0	0
88	1	1	25.29471330983211	-6.551431462340701	31.685366426133687	0	0	0
89	1	1	26.231554543529597	-6.892721767330544	31.76184799622814	0	0	0
90	1	1	27.168395777227083	-6.997131937202346	32.09565485546191	0	0	0
91	1	1	28.10523701092457	-7.338422242192189	32.17213642555637	0	0	0
92	1	1	-0.5588424763711695	-1.3243234251287852	26.024260318423213	0	0	0
93	1	1	-1.1176849527423396	-1.9929702565621652	25.533743752528196	0	0	0
94	1	1	-1.6765274291135097	-2.7520934793210423	25.867550611761967	0	0	0
95	1	1	-2.2353699054846796	-3.4207403107544225	25.37703404586695	0	0	0
96	1	1	-2.79421238185585	-4.179863533513299	25.71084090510072	0	0	0
97	1	1	-3.3530548582270203	-4.848510364946679	25.220324339205703	0	0	0
98	1	1	-3.9118973345981907	-5.607633587705556	25.554131198439475	0	0	0
99	1	1	-4.470739810969361	-6.276280419138936	25.063614632544457	0	0	0
100	1	1	-5.029582287340531	-7.035403641897813	25.39742149177823	0	0	0
101	1	1	-5.588424763711702	-7.7040504733311925	24.90690492588321	0	0	0
102	1	1	-6.147267240082872	-8.46317369609007	25.240711785116982	0	0	0
103	1	1	-6.706109716454042	-9.13182052752345	24.750195219221965	0	0	0
104	1	1	-7.264952192825213	-9.890943750282327	25.084002078455736	0	0	0
105	1	1	-7.823794669196383	-10.559590581715707	24.59348551256072	0	0	0
106	1	1	-8.382637145567553	-11.318713804474584	24.92729237179449	0	0	0
107	1	1	-8.941479621938724	-11.987360635907963	24.436775805899472	0	0	0
108	1	1	-9.500322098309894	-12.74648385866684	24.770582665133244	0	0	0
109	1	1	-10.059164574681065	-13.41513069010022	24.280066099238226	0	0	0
110	1	1	-10.618007051052235	-14.174253912859097	24.613872958471998	0	0	0
111	1	1	-11.176849527423405	-14.842900744292477	24.12335639257698	0	0	0
112	1	1	-11.735692003794576	-15.602023967051354	24.45716325181075	0	0	0
113	1	1	-12.294534480165746	-16.270670798484733	23.966646685915734	0	0	0
114	1	1	-12.853376956536916	-17.02979402124361	24.300453545149505	0	0	0
115	1	1	-13.412219432908087	-17.698440852676992	23.809936979254488	0	0	0
116	1	1	-13.971061909279257	-18.45756407543587	24.14374383848826	0	0	0
117	1	1	-14.529904385650427	-19.12621090686925	23.65322727259324	0	0	0
118	1	1	-15.088746862021598	-19.885334129628127	23.987034131827013	0	0	0
119	1	1	-15.647589338392768	-20.55398096106151	23.496517565931995	0	0	0
120	1	1	-16.20643181476394	-21.313104183820386	23.830324425165767	0	0	0
121	1	1	-16.765274291135107	-21.981751015253767	23.33980785927075	0	0	0
122	1	1	-16.54486531854685	-21.950016012882116	22.36491669897281	0	0	0
123	1	1	-16.324456345958595	-21.435087114490138	21.53650368941573	0	0	0
124	1	1	-16.10404737337034	-21.8950493763961	20.676355677487006	0	0	0
125	1	1	-15.883638400782083	-21.380120478004123	19.847942667929928	0	0	0
126	1	1	-15.663229428193826	-21.840082739910084	18.987794656001203	0	0	0
127	1	1	-15.44282045560557	-21.32515384151811	18.159381646444125	0	0	0
128	1	1	-15.222411483017314	-21.78511610342407	17.2992336345154	0	0	0
129	1	1	-15.002002510429058	-21.270187205032094	16.47082062495832	0	0	0
130	1	1	-14.781593537840802	-21.730149466938055	15.610672613029594	0	0	0
131	1	1	-14.561184565252546	-21.21522056854608	14.782259603472516	0	0	0
132	1	1	-14.34077559266429	-21.67518283045204	13.92211159154379	0	0	0
133	1	1	-14.120366620076034	-21.160253932060066	13.093698581986711	0	0	0
134	1	1	-13.899957647487778	-21.620216193966026	12.233550570057984	0	0	0
135	1	1	-13.679548674899522	-21.10528729557405	11.405137560500906	0	0	0
136	1	1	-13.459139702311266	-21.565249557480012	10.544989548572179	0	0	0
137	1	1	-13.23873072972301	-21.050320659088037	9.7165765390151	0	0	0
138	1	1	-13.018321757134753	-21.510282920993998	8.856428527086374	0	0	0
139	1	1	-12.797912784546497	-20.995354022602022	8.028015517529296	0	0	0
140	1	1	-12.577503811958241	-21.455316284507983	7.167867505600569	0	0	0
141	1	1	-12.357094839369985	-20.940387386116008	6.3394544960434915	0	0	0
142	1	1	-12.136685866781729	-21.40034964802197	5.4793064841147645	0	0	0
143	1	1	-11.916276894193473	-20.885420749629994	4.650893474557687	0	0	0
144	1	1	-11.695867921605217	-21.345383011535954	3.7907454626289603	0	0	0
145	1	1	-11.47545894901696	-20.83045411314398	2.962332453071883	0	0	0
146	1	1	-11.255049976428705	-21.29041637504994	2.102184441143156	0	0	0
147	1	1	-11.034641003840449	-20.775487476657965	1.2737714315860789	0	0	0
148	1	1	-10.814232031252192	-21.235449738563926	0.41362341965735194	0	0	0
149	1	1	-10.593823058663936	-20.72052084017195	-0.41478958989972536	0	0	0
150	1	1	-10.37341408607568	-21.18048310207791	-1.2749376018284524	0	0	0
151	1	1	-10.153005113487424	-20.665554203685936	-2.1033506113855296	0	0	0
152	1	1	-17.733303466428218	-21.766967364144342	23.469374440600365	0	0	0
153	1	1	-18.70133264172133	-21.645742556630815	23.688974217068026	0	0	0
154	1	1	-19.66936181701444	-21.39495116778767	23.69379034242626	0	0	0
155	1	1	-20.63739099230755	-21.273726360274143	23.913390118893922	0	0	0
156	1	1	-21.605420167600663	-21.022934971431	23.918206244252158	0	0	0
157	1	1	-22.573449342893774	-20.90171016391747	24.137806020719818	0	0	0
158	1	1	-23.541478518186885	-20.650918775074327	24.142622146078054	0	0	0
159	1	1	-24.509507693479996	-20.5296939675608	24.362221922545714	0	0	0
160	1	1	-25.477536868773107	-20.278902578717656	24.36703804790395	0	0	0
161	1	1	-26.44556604406622	-20.157677771204128	24.58663782437161	0	0	0
162	1	1	-27.41359521935933	-19.906886382360984	24.591453949729846	0	0	0
163	1	1	-28.38162439465244	-19.785661574847456	24.811053726197507	0	0	0
164	1	1	-29.349653569945552	-19.534870186004312	24.815869851555743	0	0	0
165	1	1	-30.317682745238663	-19.413645378490784	25.035469628023403	0	0	0
166	1	1	-31.285711920531774	-19.16285398964764	25.04028575338164	0	0	0
167	1	1	-32.253741095824886	-19.041629182134113	25.2598855298493	0	0	0
168	1	1	-33.221770271118	-18.79083779329097	25.264701655207535	0	0	0
169	1	1	-34.18979944641111	-18.66961298577744	25.484301431675195	0	0	0
170	1	1	-35.15782862170422	-18.418821596934297	25.48911755703343	0	0	0
171	1	1	-36.12585779699733	-18.29759678942077	25.70871733350109	0	0	0
172	1	1	-37.09388697229044	-18.046805400577625	25.713533458859327	0	0	0
173	1	1	-38.06191614758355	-17.925580593064097	25.933133235326988	0	0	0
174	1	1	-39.029945322876664	-17.674789204220954	25.937949360685224	0	0	0
175	1	1	-39.997974498169775	-17.553564396707426	26.157549137152884	0	0	0
176	1	1	-40.966003673462886	-17.302773007864282	26.16236526251112	0	0	0
177	1	1	-41.934032848756	-17.181548200350754	26.38196503897878	0	0	0
178	1	1	-42.90206202404911	-16.93075681150761	26.386781164337016	0	0	0
179	1	1	-43.87009119934222	-16.809532003994082	26.606380940804677	0	0	0
180	1	1	-44.83812037463533	-16.55874061515094	26.611197066162912	0	0	0
181	1	1	-45.80614954992844	-16.43751580763741	26.830796842630573	0	0	0
182	1	1	-16.5772904439619	-22.897866364947017	23.69391905544842	0	0	0
183	1	1	-16.389306596788693	-23.868301128667067	23.54253067225615	0	0	0
184	1	1	-16.201322749615485	-24.48462469620945	24.30725763875713	0	0	0
185	1	1	-16.01333890244228	-25.4550594599295	24.15586925556486	0	0	0
186	1	1	-15.825355055269071	-26.071383027471885	24.92059622206584	0	0	0
187	1	1	-15.637371208095864	-27.041817791191935	24.76920783887357	0	0	0
188	1	1	-15.449387360922657	-27.65814135873432	25.53393480537455	0	0	0
189	1	1	-15.26140351374945	-28.62857612245437	25.38254642218228	0	0	0
190	1	1	-15.073419666576243	-29.244899689996753	26.14727338868326	0	0	0
191	1	1	-14.885435819403035	-30.215334453716803	25.99588500549099	0	0	0
192	1	1	-14.697451972229828	-30.831658021259187	26.76061197199197	0	0	0
193	1	1	-14.509468125056621	-31.802092784979237	26.6092235887997	0	0	0
194	1	1	-14.321484277883414	-32.41841635252162	27.37395055530068	0	0	0
195	1	1	-14.133500430710207	-33.38885111624167	27.22256217210841	0	0	0
196	1	1	-13.945516583537	-34.00517468378405	27.98728913860939	0	0	0
197	1	1	-13.757532736363792	-34.9756094475041	27.83590075541712	0	0	0
198	1	1	-13.569548889190585	-35.59193301504648	28.6006277219181	0	0	0
199	1	1	-13.381565042017378	-36.56236777876653	28.44923933872583	0	0	0
200	1	1	-13.193581194844171	-37.17869134630891	29.213966305226812	0	0	0
201	1	1	-13.005597347670964	-38.14912611002896	29.062577922034542	0	0	0
202	1	1	-12.817613500497757	-38.76544967757134	29.827304888535522	0	0	0
203	1	1	-12.62962965332455	-39.73588444129139	29.675916505343253	0	0	0
204	1	1	-12.441645806151342	-40.35220800883377	30.440643471844233	0	0	0
205	1	1	-12.253661958978135	-41.32264277255382	30.289255088651963	0	0	0
206	1	1	-12.065678111804928	-41.9389663400962	31.053982055152943	0	0	0
207	1	1	-11.877694264631721	-42.90940110381625	30.902593671960673	0	0	0
208	1	1	-11.689710417458514	-43.52572467135863	31.667320638461653	0	0	0
209	1	1	-11.501726570285307	-44.49615943507868	31.515932255269384	0	0	0
210	1	1	-11.3137427231121	-45.11248300262106	32.280659221770364	0	0	0
211	1	1	-11.125758875938892	-46.08291776634111	32.129270838578094	0	0	0
212	1	1	-11.792535299052624	-46.455354277398534	31.483747603666266	0	0	0
213	1	1	-12.459311722166355	-46.4551321398152	30.738489827970803	0	0	0
214	1	1	-13.126088145280086	-47.10043323714369	30.365668563332765	0	0	0
215	1	1	-13.792864568393817	-47.100211099560354	29.6204107876373	0	0	0
216	1	1	-14.459640991507548	-47.745512196888846	29.247589522999263	0	0	0
217	1	1	-15.12641741462128	-47.74529005930551	28.5023317473038	0	0	0
218	1	1	-15.79319383773501	-48.390591156634	28.12951048266576	0	0	0
219	1	1	-16.459970260848742	-48.39036901905067	27.384252706970297	0	0	0
220	1	1	-17.126746683962473	-49.03567011637916	27.01143144233226	0	0	0
221	1	1	-17.793523107076204	-49.03544797879582	26.266173666636796	0	0	0
222	1	1	-18.460299530189936	-49.680749076124314	25.893352401998758	0	0	0
223	1	1	-19.127075953303667	-49.68052693854098	25.148094626303294	0	0	0
224	1	1	-19.793852376417398	-50.32582803586947	24.775273361665256	0	0	0
225	1	1	-20.46062879953113	-50.325605898286135	24.030015585969792	0	0	0
226	1	1	-21.12740522264486	-50.97090699561463	23.657194321331755	0	0	0
227	1	1	-21.79418164575859	-50.97068485803129	22.91193654563629	0	0	0
228	1	1	-22.460958068872323	-51.61598595535978	22.539115280998253	0	0	0
229	1	1	-23.127734491986054	-51.61576381777645	21.79385750530279	0	0	0
230	1	1	-23.794510915099785	-52.26106491510494	21.42103624066475	0	0	0
231	1	1	-24.461287338213516	-52.2608427775216	20.675778464969287	0	0	0
232	1	1	-25.128063761327248	-52.906143874850095	20.30295720033125	0	0	0
233	1	1	-25.79484018444098	-52.90592173726676	19.557699424635786	0	0	0
234	1	1	-26.46161660755471	-53.55122283459525	19.184878159997748	0	0	0
235	1	1	-27.12839303066844	-53.551000697011915	18.439620384302284	0	0	0
236	1	1	-27.795169453782172	-54.19630179434041	18.066799119664246	0	0	0
237	1	1	-28.461945876895903	-54.19607965675707	17.321541343968782	0	0	0
238	1	1	-29.128722300009635	-54.84138075408556	16.948720079330744	0	0	0
239	1	1	-29.795498723123366	-54.84115861650223	16.20346230363528	0	0	0
240	1	1	-30.462275146237097	-55.48645971383072	15.830641038997241	0	0	0
241	1	1	-31.12905156935083	-55.48623757624738	15.085383263301775	0	0	0
242	1	1	-11.191927872254283	-46.57511509492556	32.99723596095396	0	0	0
243	1	1	-11.258096868569673	-47.435353046342456	33.5028171422381	0	0	0
244	1	1	-11.324265864885064	-47.42762587538349	34.50059565210669	0	0	0
245	1	1	-11.390434861200454	-48.28786382680039	35.00617683339083	0	0	0
246	1	1	-11.456603857515844	-48.280136655841424	36.00395534325942	0	0	0
247	1	1	-11.522772853831235	-49.14037460725832	36.50953652454356	0	0	0
248	1	1	-11.588941850146625	-49.13264743629936	37.50731503441215	0	0	0
249	1	1	-11.655110846462016	-49.99288538771626	38.012896215696294	0	0	0
250	1	1	-11.721279842777406	-49.98515821675729	39.01067472556488	0	0	0
251	1	1	-11.787448839092797	-50.84539616817419	39.516255906849025	0	0	0
252	1	1	-11.853617835408187	-50.837668997215225	40.514034416717614	0	0	0
253	1	1	-11.919786831723577	-51.697906948632124	41.01961559800176	0	0	0
254	1	1	-11.985955828038968	-51.69017977767316	42.017394107870345	0	0	0
255	1	1	-12.052124824354358	-52.55041772909006	42.52297528915449	0	0	0
256	1	1	-12.118293820669749	-52.54269055813109	43.520753799023076	0	0	0
257	1	1	-12.184462816985139	-53.40292850954799	44.02633498030722	0	0	0
258	1	1	-12.25063181330053	-53.395201338589025	45.02411349017581	0	0	0
259	1	1	-12.31680080961592	-54.255439290005924	45.52969467145995	0	0	0
260	1	1	-12.38296980593131	-54.24771211904696	46.52747318132854	0	0	0
261	1	1	-12.4491388022467	-55.10795007046386	47.03305436261268	0	0	0
262	1	1	-12.515307798562091	-55.10022289950489	48.03083287248127	0	0	0
263	1	1	-12.581476794877481	-55.96046085092179	48.53641405376541	0	0	0
264	1	1	-12.647645791192872	-55.952733679962826	49.534192563634	0	0	0
265	1	1	-12.713814787508262	-56.812971631379725	50.03977374491814	0	0	0
266	1	1	-12.779983783823653	-56.80524446042076	51.03755225478673	0	0	0
267	1	1	-12.846152780139043	-57.66548241183766	51.543133436070875	0	0	0
268	1	1	-12.912321776454434	-57.65775524087869	52.54091194593946	0	0	0
269	1	1	-12.978490772769824	-58.51799319229559	53.046493127223606	0	0	0
270	1	1	-13.044659769085214	-58.510266021336626	54.044271637092194	0	0	0
271	1	1	-13.110828765400605	-59.370503972753525	54.54985281837634	0	0	0
272	1	1	-10.204562563675065	-46.190097268405204	31.755225508960393	0	0	0
273	1	1	-9.283366251411236	-46.09589477514882	31.377703000312493	0	0	0
274	1	1	-8.362169939147407	-46.37573761151014	31.107359993728686	0	0	0
275	1	1	-7.4409736268835776	-46.28153511825376	30.729837485080786	0	0	0
276	1	1	-6.519777314619748	-46.561377954615075	30.45949447849698	0	0	0
277	1	1	-5.598581002355919	-46.46717546135869	30.08197196984908	0	0	0
278	1	1	-4.67738469009209	-46.74701829772001	29.81162896326527	0	0	0
279	1	1	-3.756188377828261	-46.65281580446363	29.43410645461737	0	0	0
280	1	1	-2.8349920655644323	-46.93265864082495	29.163763448033563	0	0	0
281	1	1	-1.9137957533006034	-46.838456147568564	28.786240939385664	0	0	0
282	1	1	-0.9925994410367746	-47.11829898392988	28.515897932801856	0	0	0
283	1	1	-0.07140312877294563	-47.0240964906735	28.138375424153956	0	0	0
284	1	1	0.8497931834908832	-47.30393932703482	27.86803241757015	0	0	0
285	1	1	1.770989495754712	-47.209736833778436	27.49050990892225	0	0	0
286	1	1	2.692185808018541	-47.489579670139754	27.22016690233844	0	0	0
287	1	1	3.6133821202823695	-47.39537717688337	26.84264439369054	0	0	0
288	1	1	4.534578432546199	-47.67522001324469	26.572301387106734	0	0	0
289	1	1	5.455774744810028	-47.58101751998831	26.194778878458834	0	0	0
290	1	1	6.376971057073857	-47.860860356349626	25.924435871875026	0	0	0
291	1	1	7.298167369337686	-47.76665786309324	25.546913363227127	0	0	0
292	1	1	8.219363681601514	-48.04650069945456	25.27657035664332	0	0	0
293	1	1	9.140559993865343	-47.95229820619818	24.89904784799542	0	0	0
294	1	1	10.061756306129173	-48.2321410425595	24.62870484141161	0	0	0
295	1	1	10.982952618393002	-48.137938549303115	24.25118233276371	0	0	0
296	1	1	11.90414893065683	-48.41778138566443	23.980839326179904	0	0	0
297	1	1	12.82534524292066	-48.32357889240805	23.603316817532004	0	0	0
298	1	1	13.74654155518449	-48.60342172876937	23.332973810948197	0	0	0
299	1	1	14.667737867448318	-48.50921923551299	22.955451302300297	0	0	0
300	1	1	15.588934179712147	-48.789062071874305	22.68510829571649	0	0	0
301	1	1	16.510130491975975	-48.69485957861792	22.30758578706859	0	0	0

Bonds

1	1	1	2
2	1	2	3
3	1	3	4
4	1	4	5
5	1	5	6
6	1	6	7
7	1	7	8
8	1	8	9
9	1	9	10
10	1	10	11
11	1	11	12
12	1	12	13
13	1	13	14
14	1	14	15
15	1	15	16
16	1	16	17
17	1	17	18
18	1	18	19
19	1	19	20
20	1	20	21
21	1	21	22
22	1	22	23
23	1	23	24
24	1	24	25
25	1	25	26
26	1	26	27
27	1	27	28
28	1	28	29
29	1	29	30
30	1	30	31
31	1	31	32
32	1	31	62
33	1	31	92
34	1	32	33
35	1	33	34
36	1	34	35
37	1	35	36
38	1	36	37
39	1	37	38
40	1	38	39
41	1	39	40
42	1	40	41
43	1	41	42
44	1	42	43
45	1	43	44
46	1	44	45
47	1	45	46
48	1	46	47
49	1	47	48
50	1	48	49
51	1	49	50
52	1	50	51
53	1	51	52
54	1	52	53
55	1	53	54
56	1	54	55
57	1	55	56
58	1	56	57
59	1	57	58
60	1	58	59
61	1	59	60
62	1	60	61
63	1	62	63
64	1	63	64
65	1	64	65
66	1	65	66
67	1	66	67
68	1	67	68
69	1	68	69
70	1	69	70
71	1	70	71
72	1	71	72
73	1	72	73
74	1	73	74
75	1	74	75
76	1	75	76
77	1	76	77
78	1	77	78
79	1	78	79
80	1	79	80
81	1	80	81
82	1	81	82
83	1	82	83
84	1	83	84
85	1	84	85
86	1	85	86
87	1	86	87
88	1	87	88
89	1	88	89
90	1	89	90
91	1	90	91
92	1	92	93
93	1	93	94
94	1	94	95
95	1	95	96
96	1	96	97
97	1	97	98
98	1	98	99
99	1	99	100
100	1	100	101
101	1	101	102
102	1	102	103
103	1	103	104
104	1	104	105
105	1	105	106
106	1	106	107
107	1	107	108
108	1	108	109
109	1	109	110
110	1	110	111
111	1	111	112
112	1	112	113
113	1	113	114
114	1	114	115
115	1	115	116
116	1	116	117
117	1	117	118
118	1	118	119
119	1	119	120
120	1	120	121
121	1	121	122
122	1	121	152
123	1	121	182
124	1	122	123
125	1	123	124
126	1	124	125
127	1	125	126
128	1	126	127
129	1	127	128
130	1	128	129
131	1	129	130
132	1	130	131
133	1	131	132
134	1	132	133
135	1	133	134
136	1	134	135
137	1	135	136
138	1	136	137
139	1	137	138
140	1	138	139
141	1	139	140
142	1	140	141
143	1	141	142
144	1	142	143
145	1	143	144
146	1	144	145
147	1	145	146
148	1	146	147
149	1	147	148
150	1	148	149
151	1	149	150
152	1	150	151
153	1	152	153
154	1	153	154
155	1	154	155
156	1	155	156
157	1	156	157
158	1	157	158
159	1	158	159
160	1	159	160
161	1	160	161
162	1	161	162
163	1	162	163
164	1	163	164
165	1	164	165
166	1	165	166
167	1	166	167
168	1	167	168
169	1	168	169
170	1	169	170
171	1	170	171
172	1	171	172
173	1	172	173
174	1	173	174
175	1	174	175
176	1	175	176
177	1	176	177
178	1	177	178
179	1	178	179
180	1	179	180
181	1	180	181
182	1	182	183
183	1	183	184
184	1	184	185
185	1	185	186
186	1	186	187
187	1	187	188
188	1	188	189
189	1	189	190
190	1	190	191
191	1	191	192
192	1	192	193
193	1	193	194
194	1	194	195
195	1	195	196
196	1	196	197
197	1	197	198
198	1	198	199
199	1	199	200
200	1	200	201
201	1	201	202
202	1	202	203
203	1	203	204
204	1	204	205
205	1	205	206
206	1	206	207
207	1	207	208
208	1	208	209
209	1	209	210
210	1	210	211
211	1	211	212
212	1	211	242
213	1	211	272
214	1	212	213
215	1	213	214
216	1	214	215
217	1	215	216
218	1	216	217
219	1	217	218
220	1	218	219
221	1	219	220
222	1	220	221
223	1	221	222
224	1	222	223
225	1	223	224
226	1	224	225
227	1	225	226
228	1	226	227
229	1	227	228
230	1	228	229
231	1	229	230
232	1	230	231
233	1	231	232
234	1	232	233
235	1	233	234
236	1	234	235
237	1	235	236
238	1	236	237
239	1	237	238
240	1	238	239
241	1	239	240
242	1	240	241
243	1	242	243
244	1	243	244
245	1	244	245
246	1	245	246
247	1	246	247
248	1	247	248
249	1	248	249
250	1	249	250
251	1	250	251
252	1	251	252
253	1	252	253
254	1	253	254
255	1	254	255
256	1	255	256
257	1	256	257
258	1	257	258
259	1	258	259
260	1	259	260
261	1	260	261
262	1	261	262
263	1	262	263
264	1	263	264
265	1	264	265
266	1	265	266
267	1	266	267
268	1	267	268
269	1	268	269
270	1	269	270
271	1	270	271
272	1	272	273
273	1	273	274
274	1	274	275
275	1	275	276
276	1	276	277
277	1	277	278
278	1	278	279
279	1	279	280
280	1	280	281
281	1	281	282
282	1	282	283
283	1	283	284
284	1	284	285
285	1	285	286
286	1	286	287
287	1	287	288
288	1	288	289
289	1	289	290
290	1	290	291
291	1	291	292
292	1	292	293
293	1	293	294
294	1	294	295
295	1	295	296
296	1	296	297
297	1	297	298
298	1	298	299
299	1	299	300
300	1	300	301

Angles

1	1	1	2	3
2	1	2	3	4
3	1	3	4	5
4	1	4	5	6
5	1	5	6	7
6	1	6	7	8
7	1	7	8	9
8	1	8	9	10
9	1	9	10	11
10	1	10	11	12
11	1	11	12	13
12	1	12	13	14
13	1	13	14	15
14	1	14	15	16
15	1	15	16	17
16	1	16	17	18
17	1	17	18	19
18	1	18	19	20
19	1	19	20	21
20	1	20	21	22
21	1	21	22	23
22	1	22	23	24
23	1	23	24	25
24	1	24	25	26
25	1	25	26	27
26	1	26	27	28
27	1	27	28	29
28	1	28	29	30
29	1	29	30	31
30	1	30	31	32
31	1	30	31	62
32	1	30	31	92
33	1	31	32	33
34	1	31	62	63
35	1	31	92	93
36	1	32	31	62
37	1	32	31	92
38	1	32	33	34
39	1	33	34	35
40	1	34	35	36
41	1	35	36	37
42	1	36	37	38
43	1	37	38	39
44	1	38	39	40
45	1	39	40	41
46	1	40	41	42
47	1	41	42	43
48	1	42	43	44
49	1	43	44	45
50	1	44	45	46
51	1	45	46	47
52	1	46	47	48
53	1	47	48	49
54	1	48	49	50
55	1	49	50	51
56	1	50	51	52
57	1	51	52	53
58	1	52	53	54
59	1	53	54	55
60	1	54	55	56
61	1	55	56	57
62	1	56	57	58
63	1	57	58	59
64	1	58	59	60
65	1	59	60	61
66	1	62	31	92
67	1	62	63	64
68	1	63	64	65
69	1	64	65	66
70	1	65	66	67
71	1	66	67	68
72	1	67	68	69
73	1	68	69	70
74	1	69	70	71
75	1	70	71	72
76	1	71	72	73
77	1	72	73	74
78	1	73	74	75
79	1	74	75	76
80	1	75	76	77
81	1	76	77	78
82	1	77	78	79
83	1	78	79	80
84	1	79	80	81
85	1	80	81	82
86	1	81	82	83
87	1	82	83	84
88	1	83	84	85
89	1	84	85	86
90	1	85	86	87
91	1	86	87	88
92	1	87	88	89
93	1	88	89	90
94	1	89	90	91
95	1	92	93	94
96	1	93	94	95
97	1	94	95	96
98	1	95	96	97
99	1	96	97	98
100	1	97	98	99
101	1	98	99	100
102	1	99	100	101
103	1	100	101	102
104	1	101	102	103
105	1	102	103	104
106	1	103	104	105
107	1	104	105	106
108	1	105	106	107
109	1	106	107	108
110	1	107	108	109
111	1	108	109	110
112	1	109	110	111
113	1	110	111	112
114	1	111	112	113
115	1	112	113	114
116	1	113	114	115
117	1	114	115	116
118	1	115	116	117
119	1	116	117	118
120	1	117	118	119
121	1	118	119	120
122	1	119	120	121
123	1	120	121	122
124	1	120	121	152
125	1	120	121	182
126	1	121	122	123
127	1	121	152	153
128	1	121	182	183
129	1	122	121	152
130	1	122	121	182
131	1	122	123	124
132	1	123	124	125
133	1	124	125	126
134	1	125	126	127
135	1	126	127	128
136	1	127	128	129
137	1	128	129	130
138	1	129	130	131
139	1	130	131	132
140	1	131	132	133
141	1	132	133	134
142	1	133	134	135
143	1	134	135	136
144	1	135	136	137
145	1	136	137	138
146	1	137	138	139
147	1	138	139	140
148	1	139	140	141
149	1	140	141	142
150	1	141	142	143
151	1	142	143	144
152	1	143	144	145
153	1	144	145	146
154	1	145	146	147
155	1	146	147	148
156	1	147	148	149
157	1	148	149	150
158	1	149	150	151
159	1	152	121	182
160	1	152	153	154
161	1	153	154	155
162	1	154	155	156
163	1	155	156	157
164	1	156	157	158
165	1	157	158	159
166	1	158	159	160
167	1	159	160	161
168	1	160	161	162
169	1	161	162	163
170	1	162	163	164
171	1	163	164	165
172	1	164	165	166
173	1	165	166	167
174	1	166	167	168
175	1	167	168	169
176	1	168	169	170
177	1	169	170	171
178	1	170	171	172
179	1	171	172	173
180	1	172	173	174
181	1	173	174	175
182	1	174	175	176
183	1	175	176	177
184	1	176	177	178
185	1	177	178	179
186	1	178	179	180
187	1	179	180	181
188	1	182	183	184
189	1	183	184	185
190	1	184	185	186
191	1	185	186	187
192	1	186	187	188
193	1	187	188	189
194	1	188	189	190
195	1	189	190	191
196	1	190	191	192
197	1	191	192	193
198	1	192	193	194
199	1	193	194	195
200	1	194	195	196
201	1	195	196	197
202	1	196	197	198
203	1	197	198	199
204	1	198	199	200
205	1	199	200	201
206	1	200	201	202
207	1	201	202	203
208	1	202	203	204
209	1	203	204	205
210	1	204	205	206
211	1	205	206	207
212	1	206	207	208
213	1	207	208	209
214	1	208	209	210
215	1	209	210	211
216	1	210	211	212
217	1	210	211	242
218	1	210	211	272
219	1	211	212	213
220	1	211	242	243
221	1	211	272	273
222	1	212	211	242
223	1	212	211	272
224	1	212	213	214
225	1	213	214	215
226	1	214	215	216
227	1	215	216	217
228	1	216	217	218
229	1	217	218	219
230	1	218	219	220
231	1	219	220	221
232	1	220	221	222
233	1	221	222	223
234	1	222	223	224
235	1	223	224	225
236	1	224	225	226
237	1	225	226	227
238	1	226	227	228
239	1	227	228	229
240	1	228	229	230
241	1	229	230	231
242	1	230	231	232
243	1	231	232	233
244	1	232	233	234
245	1	233	234	235
246	1	234	235	236
247	1	235	236	237
248	1	236	237	238
249	1	237	238	239
250	1	238	239	240
251	1	239	240	241
252	1	242	211	272
253	1	242	243	244
254	1	243	244	245
255	1	244	245	246
256	1	245	246	247
257	1	246	247	248
258	1	247	248	249
259	1	248	249	250
260	1	249	250	251
261	1	250	251	252
262	1	251	252	253
263	1	252	253	254
264	1	253	254	255
265	1	254	255	256
266	1	255	256	257
267	1	256	257	258
268	1	257	258	259
269	1	258	259	260
270	1	259	260	261
271	1	260	261	262
272	1	261	262	263
273	1	262	263	264
274	1	263	264	265
275	1	264	265	266
276	1	265	266	267
277	1	266	267	268
278	1	267	268	269
279	1	268	269	270
280	1	269	270	271
281	1	272	273	274
282	1	273	274	275
283	1	274	275	276
284	1	275	276	277
285	1	276	277	278
286	1	277	278	279
287	1	278	279	280
288	1	279	280	281
289	1	280	281	282
290	1	281	282	283
291	1	282	283	284
292	1	283	284	285
293	1	284	285	286
294	1	285	286	287
295	1	286	287	288
296	1	287	288	289
297	1	288	289	290
298	1	289	290	291
299	1	290	291	292
300	1	291	292	293
301	1	292	293	294
302	1	293	294	295
303	1	294	295	296
304	1	295	296	297
305	1	296	297	298
306	1	297	298	299
307	1	298	299	300
308	1	299	300	301
