bb240nuc3bl60bn4d30tot600

601 atoms
600 bonds
608 angles

1 atom types
1 bond types
1 angle types

-1000 1000 xlo xhi
-1000 1000 ylo yhi
-1000 1000 zlo zhi

Masses

1 1

Atoms

1	1	1	0.0	0.0	0.0	0	0	0
2	1	1	0.0	0.0	1.0	0	0	0
3	1	1	0.0	-0.49999999999999994	1.8660254037844388	0	0	0
4	1	1	0.0	0.0	2.7320508075688776	0	0	0
5	1	1	0.0	-0.49999999999999994	3.5980762113533165	0	0	0
6	1	1	0.0	0.0	4.464101615137755	0	0	0
7	1	1	0.0	-0.49999999999999994	5.330127018922194	0	0	0
8	1	1	0.0	0.0	6.196152422706632	0	0	0
9	1	1	0.0	-0.49999999999999994	7.06217782649107	0	0	0
10	1	1	0.0	0.0	7.928203230275509	0	0	0
11	1	1	0.0	-0.49999999999999994	8.794228634059948	0	0	0
12	1	1	0.0	0.0	9.660254037844387	0	0	0
13	1	1	0.0	-0.49999999999999994	10.526279441628827	0	0	0
14	1	1	0.0	0.0	11.392304845413266	0	0	0
15	1	1	0.0	-0.49999999999999994	12.258330249197705	0	0	0
16	1	1	0.0	0.0	13.124355652982144	0	0	0
17	1	1	0.0	-0.49999999999999994	13.990381056766584	0	0	0
18	1	1	0.0	0.0	14.856406460551023	0	0	0
19	1	1	0.0	-0.49999999999999994	15.722431864335462	0	0	0
20	1	1	0.0	0.0	16.5884572681199	0	0	0
21	1	1	0.0	-0.49999999999999994	17.454482671904337	0	0	0
22	1	1	0.0	0.0	18.320508075688775	0	0	0
23	1	1	0.0	-0.49999999999999994	19.186533479473212	0	0	0
24	1	1	0.0	0.0	20.05255888325765	0	0	0
25	1	1	0.0	-0.49999999999999994	20.918584287042087	0	0	0
26	1	1	0.0	0.0	21.784609690826525	0	0	0
27	1	1	0.0	-0.49999999999999994	22.650635094610962	0	0	0
28	1	1	0.0	0.0	23.5166604983954	0	0	0
29	1	1	0.0	-0.49999999999999994	24.382685902179837	0	0	0
30	1	1	0.0	0.0	25.248711305964274	0	0	0
31	1	1	0.0	-0.49999999999999994	26.114736709748712	0	0	0
32	1	1	0.0	0.0	26.98076211353315	0	0	0
33	1	1	0.0	-0.49999999999999994	27.846787517317587	0	0	0
34	1	1	0.0	0.0	28.712812921102024	0	0	0
35	1	1	0.0	-0.49999999999999994	29.578838324886462	0	0	0
36	1	1	0.0	0.0	30.4448637286709	0	0	0
37	1	1	0.0	-0.49999999999999994	31.310889132455337	0	0	0
38	1	1	0.0	0.0	32.17691453623978	0	0	0
39	1	1	0.0	-0.49999999999999994	33.04293994002422	0	0	0
40	1	1	0.0	0.0	33.90896534380866	0	0	0
41	1	1	0.0	-0.49999999999999994	34.7749907475931	0	0	0
42	1	1	0.0	0.0	35.64101615137754	0	0	0
43	1	1	0.0	-0.49999999999999994	36.50704155516198	0	0	0
44	1	1	0.0	0.0	37.373066958946424	0	0	0
45	1	1	0.0	-0.49999999999999994	38.239092362730865	0	0	0
46	1	1	0.0	0.0	39.105117766515306	0	0	0
47	1	1	0.0	-0.49999999999999994	39.97114317029975	0	0	0
48	1	1	0.0	0.0	40.83716857408419	0	0	0
49	1	1	0.0	-0.49999999999999994	41.70319397786863	0	0	0
50	1	1	0.0	0.0	42.56921938165307	0	0	0
51	1	1	0.0	-0.49999999999999994	43.43524478543751	0	0	0
52	1	1	0.0	0.0	44.30127018922195	0	0	0
53	1	1	0.0	-0.49999999999999994	45.16729559300639	0	0	0
54	1	1	0.0	0.0	46.033320996790835	0	0	0
55	1	1	0.0	-0.49999999999999994	46.899346400575276	0	0	0
56	1	1	0.0	0.0	47.76537180435972	0	0	0
57	1	1	0.0	-0.49999999999999994	48.63139720814416	0	0	0
58	1	1	0.0	0.0	49.4974226119286	0	0	0
59	1	1	0.0	-0.49999999999999994	50.36344801571304	0	0	0
60	1	1	0.0	0.0	51.22947341949748	0	0	0
61	1	1	0.0	-0.49999999999999994	52.09549882328192	0	0	0
62	1	1	0.0465062195324253	0.14845392406612962	52.855330830970495	0	0	0
63	1	1	0.09301243906485052	0.33011549164681764	53.837591614270394	0	0	0
64	1	1	0.13951865859727572	1.2716090669160747	54.17139847350416	0	0	0
65	1	1	0.18602487812970092	1.4532706344967627	55.15365925680406	0	0	0
66	1	1	0.23253109766212612	2.39476420976602	55.48746611603783	0	0	0
67	1	1	0.2790373171945513	2.576425777346708	56.46972689933773	0	0	0
68	1	1	0.32554353672697656	3.517919352615965	56.8035337585715	0	0	0
69	1	1	0.3720497562594018	3.6995809201966527	57.7857945418714	0	0	0
70	1	1	0.418555975791827	4.64107449546591	58.119601401105164	0	0	0
71	1	1	0.46506219532425225	4.822736063046598	59.101862184405064	0	0	0
72	1	1	0.5115684148566775	5.7642296383158556	59.43566904363883	0	0	0
73	1	1	0.5580746343891027	5.945891205896544	60.41792982693873	0	0	0
74	1	1	0.6045808539215278	6.887384781165801	60.7517366861725	0	0	0
75	1	1	0.651087073453953	7.06904634874649	61.7339974694724	0	0	0
76	1	1	0.6975932929863782	8.010539924015747	62.06780432870617	0	0	0
77	1	1	0.7440995125188034	8.192201491596435	63.05006511200607	0	0	0
78	1	1	0.7906057320512285	9.133695066865693	63.383871971239834	0	0	0
79	1	1	0.8371119515836537	9.315356634446381	64.36613275453973	0	0	0
80	1	1	0.8836181711160789	10.256850209715639	64.69993961377351	0	0	0
81	1	1	0.930124390648504	10.438511777296327	65.6822003970734	0	0	0
82	1	1	0.9766306101809292	11.380005352565584	66.01600725630718	0	0	0
83	1	1	1.0231368297133545	11.561666920146273	66.99826803960707	0	0	0
84	1	1	1.0696430492457798	12.50316049541553	67.33207489884084	0	0	0
85	1	1	1.116149268778205	12.684822062996219	68.31433568214074	0	0	0
86	1	1	1.1626554883106304	13.626315638265476	68.64814254137451	0	0	0
87	1	1	1.2091617078430557	13.807977205846164	69.6304033246744	0	0	0
88	1	1	1.255667927375481	14.749470781115422	69.96421018390818	0	0	0
89	1	1	1.3021741469079062	14.93113234869611	70.94647096720807	0	0	0
90	1	1	1.3486803664403315	15.872625923965368	71.28027782644185	0	0	0
91	1	1	1.3951865859727568	16.054287491546056	72.26253860974174	0	0	0
92	1	1	1.441692805505182	16.99578106681531	72.59634546897551	0	0	0
93	1	1	1.4881990250376074	17.177442634395998	73.5786062522754	0	0	0
94	1	1	1.5347052445700327	18.118936209665254	73.91241311150918	0	0	0
95	1	1	1.581211464102458	18.30059777724594	74.89467389480907	0	0	0
96	1	1	1.6277176836348832	19.242091352515196	75.22848075404285	0	0	0
97	1	1	1.6742239031673085	19.423752920095883	76.21074153734274	0	0	0
98	1	1	1.7207301226997338	20.365246495365138	76.54454839657652	0	0	0
99	1	1	1.767236342232159	20.546908062945825	77.52680917987641	0	0	0
100	1	1	1.8137425617645844	21.48840163821508	77.86061603911018	0	0	0
101	1	1	1.8602487812970097	21.670063205795767	78.84287682241008	0	0	0
102	1	1	1.906755000829435	22.611556781065023	79.17668368164385	0	0	0
103	1	1	1.9532612203618602	22.79321834864571	80.15894446494374	0	0	0
104	1	1	1.9997674398942855	23.734711923914965	80.49275132417752	0	0	0
105	1	1	2.046273659426711	23.91637349149565	81.47501210747741	0	0	0
106	1	1	2.092779878959136	24.857867066764907	81.80881896671119	0	0	0
107	1	1	2.139286098491561	25.039528634345594	82.79107975001108	0	0	0
108	1	1	2.185792318023986	25.98102220961485	83.12488660924485	0	0	0
109	1	1	2.232298537556411	26.162683777195536	84.10714739254475	0	0	0
110	1	1	2.278804757088836	27.10417735246479	84.44095425177852	0	0	0
111	1	1	2.325310976621261	27.285838920045478	85.42321503507841	0	0	0
112	1	1	2.3718171961536862	28.227332495314734	85.75702189431219	0	0	0
113	1	1	2.4183234156861113	28.40899406289542	86.73928267761208	0	0	0
114	1	1	2.4648296352185364	29.350487638164676	87.07308953684586	0	0	0
115	1	1	2.5113358547509614	29.532149205745363	88.05535032014575	0	0	0
116	1	1	2.5578420742833865	30.473642781014618	88.38915717937952	0	0	0
117	1	1	2.6043482938158116	30.655304348595305	89.37141796267942	0	0	0
118	1	1	2.6508545133482366	31.59679792386456	89.70522482191319	0	0	0
119	1	1	2.6973607328806617	31.778459491445247	90.68748560521308	0	0	0
120	1	1	2.7438669524130868	32.7199530667145	91.02129246444686	0	0	0
121	1	1	2.790373171945512	32.90161463429519	92.00355324774675	0	0	0
122	1	1	0.7921042439167995	-1.1094617711077148	52.12907286574402	0	0	0
123	1	1	1.5842084878335974	-1.654058168753501	51.85341795387008	0	0	0
124	1	1	2.3763127317503954	-2.1650805239371884	52.18722481310385	0	0	0
125	1	1	3.1684169756671934	-2.7096769215829744	51.91156990122991	0	0	0
126	1	1	3.9605212195839914	-3.220699276766662	52.245376760463685	0	0	0
127	1	1	4.752625463500789	-3.7652956744124477	51.96972184858974	0	0	0
128	1	1	5.544729707417587	-4.276318029596135	52.30352870782352	0	0	0
129	1	1	6.336833951334385	-4.820914427241921	52.027873795949574	0	0	0
130	1	1	7.128938195251183	-5.3319367824256085	52.36168065518335	0	0	0
131	1	1	7.921042439167981	-5.8765331800713945	52.086025743309406	0	0	0
132	1	1	8.713146683084778	-6.387555535255082	52.41983260254318	0	0	0
133	1	1	9.505250927001576	-6.932151932900868	52.14417769066924	0	0	0
134	1	1	10.297355170918374	-7.443174288084555	52.47798454990301	0	0	0
135	1	1	11.089459414835172	-7.987770685730341	52.20232963802907	0	0	0
136	1	1	11.88156365875197	-8.498793040914029	52.536136497262845	0	0	0
137	1	1	12.673667902668768	-9.043389438559815	52.2604815853889	0	0	0
138	1	1	13.465772146585566	-9.554411793743503	52.59428844462268	0	0	0
139	1	1	14.257876390502364	-10.09900819138929	52.318633532748734	0	0	0
140	1	1	15.049980634419162	-10.610030546572977	52.65244039198251	0	0	0
141	1	1	15.84208487833596	-11.154626944218764	52.376785480108566	0	0	0
142	1	1	16.634189122252756	-11.665649299402451	52.71059233934234	0	0	0
143	1	1	17.426293366169553	-12.210245697048238	52.4349374274684	0	0	0
144	1	1	18.21839761008635	-12.721268052231926	52.76874428670217	0	0	0
145	1	1	19.010501854003145	-13.265864449877713	52.49308937482823	0	0	0
146	1	1	19.80260609791994	-13.7768868050614	52.826896234062005	0	0	0
147	1	1	20.594710341836738	-14.321483202707187	52.55124132218806	0	0	0
148	1	1	21.386814585753534	-14.832505557890874	52.88504818142184	0	0	0
149	1	1	22.17891882967033	-15.377101955536661	52.609393269547894	0	0	0
150	1	1	22.971023073587126	-15.888124310720348	52.94320012878167	0	0	0
151	1	1	23.763127317503923	-16.432720708366134	52.667545216907726	0	0	0
152	1	1	24.55523156142072	-16.94374306354982	53.0013520761415	0	0	0
153	1	1	25.347335805337515	-17.488339461195608	52.72569716426756	0	0	0
154	1	1	26.13944004925431	-17.999361816379295	53.05950402350133	0	0	0
155	1	1	26.931544293171108	-18.543958214025082	52.78384911162739	0	0	0
156	1	1	27.723648537087904	-19.05498056920877	53.117655970861165	0	0	0
157	1	1	28.5157527810047	-19.599576966854556	52.84200105898722	0	0	0
158	1	1	29.307857024921496	-20.110599322038244	53.175807918221	0	0	0
159	1	1	30.099961268838292	-20.65519571968403	52.900153006347054	0	0	0
160	1	1	30.89206551275509	-21.166218074867718	53.23395986558083	0	0	0
161	1	1	31.684169756671885	-21.710814472513505	52.958304953706886	0	0	0
162	1	1	32.47627400058868	-22.221836827697192	53.29211181294066	0	0	0
163	1	1	33.26837824450548	-22.76643322534298	53.01645690106672	0	0	0
164	1	1	34.060482488422274	-23.277455580526667	53.35026376030049	0	0	0
165	1	1	34.85258673233907	-23.822051978172453	53.07460884842655	0	0	0
166	1	1	35.644690976255866	-24.33307433335614	53.408415707660325	0	0	0
167	1	1	36.43679522017266	-24.877670731001928	53.13276079578638	0	0	0
168	1	1	37.22889946408946	-25.388693086185615	53.46656765502016	0	0	0
169	1	1	38.021003708006255	-25.933289483831402	53.190912743146214	0	0	0
170	1	1	38.81310795192305	-26.44431183901509	53.52471960237999	0	0	0
171	1	1	39.60521219583985	-26.988908236660876	53.249064690506046	0	0	0
172	1	1	40.39731643975664	-27.499930591844564	53.58287154973982	0	0	0
173	1	1	41.18942068367344	-28.04452698949035	53.30721663786588	0	0	0
174	1	1	41.981524927590236	-28.555549344674038	53.64102349709965	0	0	0
175	1	1	42.77362917150703	-29.100145742319825	53.36536858522571	0	0	0
176	1	1	43.56573341542383	-29.611168097503512	53.699175444459485	0	0	0
177	1	1	44.357837659340625	-30.1557644951493	53.42352053258554	0	0	0
178	1	1	45.14994190325742	-30.666786850332986	53.75732739181932	0	0	0
179	1	1	45.94204614717422	-31.211383247978773	53.481672479945374	0	0	0
180	1	1	46.73415039109101	-31.72240560316246	53.81547933917915	0	0	0
181	1	1	47.52625463500781	-32.26700200080825	53.539824427305206	0	0	0
182	1	1	-0.8386104634492304	-1.0397024418090677	52.16934843329308	0	0	0
183	1	1	-1.6772209268984595	-1.5440232719057922	51.963452850717786	0	0	0
184	1	1	-2.5158313903476883	-1.9744944919913567	52.29725970995156	0	0	0
185	1	1	-3.354441853796917	-2.4788153220880815	52.091364127376266	0	0	0
186	1	1	-4.1930523172461465	-2.909286542173646	52.42517098661004	0	0	0
187	1	1	-5.031662780695376	-3.4136073722703704	52.21927540403475	0	0	0
188	1	1	-5.870273244144605	-3.8440785923559346	52.55308226326852	0	0	0
189	1	1	-6.708883707593834	-4.348399422452659	52.34718668069323	0	0	0
190	1	1	-7.547494171043064	-4.778870642538224	52.680993539927	0	0	0
191	1	1	-8.386104634492293	-5.2831914726349485	52.47509795735171	0	0	0
192	1	1	-9.224715097941521	-5.713662692720513	52.80890481658548	0	0	0
193	1	1	-10.06332556139075	-6.217983522817238	52.60300923401019	0	0	0
194	1	1	-10.901936024839978	-6.6484547429028025	52.93681609324396	0	0	0
195	1	1	-11.740546488289207	-7.152775572999527	52.73092051066867	0	0	0
196	1	1	-12.579156951738435	-7.583246793085092	53.06472736990244	0	0	0
197	1	1	-13.417767415187663	-8.087567623181815	52.85883178732715	0	0	0
198	1	1	-14.256377878636892	-8.51803884326738	53.19263864656092	0	0	0
199	1	1	-15.09498834208612	-9.022359673364104	52.98674306398563	0	0	0
200	1	1	-15.933598805535349	-9.452830893449669	53.3205499232194	0	0	0
201	1	1	-16.77220926898458	-9.957151723546392	53.11465434064411	0	0	0
202	1	1	-17.610819732433807	-10.387622943631957	53.44846119987788	0	0	0
203	1	1	-18.449430195883036	-10.89194377372868	53.24256561730259	0	0	0
204	1	1	-19.288040659332264	-11.322414993814245	53.57637247653636	0	0	0
205	1	1	-20.126651122781492	-11.826735823910969	53.37047689396107	0	0	0
206	1	1	-20.96526158623072	-12.257207043996534	53.704283753194844	0	0	0
207	1	1	-21.80387204967995	-12.761527874093257	53.49838817061955	0	0	0
208	1	1	-22.642482513129178	-13.191999094178822	53.832195029853324	0	0	0
209	1	1	-23.481092976578406	-13.696319924275546	53.62629944727803	0	0	0
210	1	1	-24.319703440027634	-14.12679114436111	53.960106306511804	0	0	0
211	1	1	-25.158313903476863	-14.631111974457834	53.75421072393651	0	0	0
212	1	1	-25.99692436692609	-15.061583194543399	54.088017583170284	0	0	0
213	1	1	-26.83553483037532	-15.565904024640123	53.88212200059499	0	0	0
214	1	1	-27.674145293824548	-15.996375244725687	54.215928859828765	0	0	0
215	1	1	-28.512755757273776	-16.50069607482241	54.01003327725347	0	0	0
216	1	1	-29.351366220723005	-16.931167294907976	54.343840136487245	0	0	0
217	1	1	-30.189976684172233	-17.4354881250047	54.13794455391195	0	0	0
218	1	1	-31.02858714762146	-17.865959345090264	54.471751413145725	0	0	0
219	1	1	-31.86719761107069	-18.370280175186988	54.26585583057043	0	0	0
220	1	1	-32.70580807451992	-18.800751395272552	54.599662689804205	0	0	0
221	1	1	-33.54441853796915	-19.305072225369276	54.39376710722891	0	0	0
222	1	1	-34.38302900141838	-19.73554344545484	54.727573966462685	0	0	0
223	1	1	-35.22163946486761	-20.239864275551565	54.52167838388739	0	0	0
224	1	1	-36.060249928316836	-20.67033549563713	54.855485243121166	0	0	0
225	1	1	-36.898860391766064	-21.174656325733853	54.64958966054587	0	0	0
226	1	1	-37.73747085521529	-21.605127545819418	54.983396519779646	0	0	0
227	1	1	-38.57608131866452	-22.10944837591614	54.77750093720435	0	0	0
228	1	1	-39.41469178211375	-22.539919596001706	55.111307796438126	0	0	0
229	1	1	-40.25330224556298	-23.04424042609843	54.90541221386283	0	0	0
230	1	1	-41.091912709012206	-23.474711646183994	55.239219073096606	0	0	0
231	1	1	-41.930523172461434	-23.979032476280718	55.03332349052131	0	0	0
232	1	1	-42.76913363591066	-24.409503696366283	55.36713034975509	0	0	0
233	1	1	-43.60774409935989	-24.913824526463006	55.16123476717979	0	0	0
234	1	1	-44.44635456280912	-25.34429574654857	55.49504162641357	0	0	0
235	1	1	-45.28496502625835	-25.848616576645295	55.28914604383827	0	0	0
236	1	1	-46.12357548970758	-26.27908779673086	55.62295290307205	0	0	0
237	1	1	-46.962185953156805	-26.783408626827583	55.41705732049675	0	0	0
238	1	1	-47.80079641660603	-27.213879846913148	55.75086417973053	0	0	0
239	1	1	-48.63940688005526	-27.71820067700987	55.54496859715523	0	0	0
240	1	1	-49.47801734350449	-28.148671897095436	55.87877545638901	0	0	0
241	1	1	-50.31662780695372	-28.65299272719216	55.67287987381371	0	0	0
242	1	1	-51.006234515909036	-28.452244208689088	56.368683451903564	0	0	0
243	1	1	-51.69584122486435	-28.62629268093826	57.071641285825024	0	0	0
244	1	1	-52.38544793381967	-28.10453757509758	57.57385060124341	0	0	0
245	1	1	-53.07505464277499	-28.278586047346753	58.27680843516487	0	0	0
246	1	1	-53.764661351730304	-27.756830941506074	58.77901775058325	0	0	0
247	1	1	-54.45426806068562	-27.930879413755246	59.48197558450471	0	0	0
248	1	1	-55.14387476964094	-27.409124307914567	59.98418489992309	0	0	0
249	1	1	-55.833481478596255	-27.58317278016374	60.68714273384455	0	0	0
250	1	1	-56.52308818755157	-27.06141767432306	61.189352049262936	0	0	0
251	1	1	-57.21269489650689	-27.235466146572232	61.892309883184396	0	0	0
252	1	1	-57.902301605462206	-26.713711040731553	62.39451919860278	0	0	0
253	1	1	-58.59190831441752	-26.887759512980725	63.09747703252424	0	0	0
254	1	1	-59.28151502337284	-26.366004407140046	63.59968634794262	0	0	0
255	1	1	-59.97112173232816	-26.54005287938922	64.30264418186408	0	0	0
256	1	1	-60.660728441283474	-26.01829777354854	64.80485349728247	0	0	0
257	1	1	-61.35033515023879	-26.19234624579771	65.50781133120392	0	0	0
258	1	1	-62.03994185919411	-25.670591139957033	66.01002064662231	0	0	0
259	1	1	-62.729548568149426	-25.844639612206205	66.71297848054377	0	0	0
260	1	1	-63.41915527710474	-25.322884506365526	67.21518779596215	0	0	0
261	1	1	-64.10876198606006	-25.496932978614698	67.91814562988361	0	0	0
262	1	1	-64.79836869501537	-24.97517787277402	68.420354945302	0	0	0
263	1	1	-65.48797540397068	-25.14922634502319	69.12331277922345	0	0	0
264	1	1	-66.17758211292599	-24.627471239182512	69.62552209464184	0	0	0
265	1	1	-66.8671888218813	-24.801519711431684	70.3284799285633	0	0	0
266	1	1	-67.55679553083661	-24.279764605591005	70.83068924398168	0	0	0
267	1	1	-68.24640223979192	-24.453813077840177	71.53364707790314	0	0	0
268	1	1	-68.93600894874723	-23.932057971999498	72.03585639332152	0	0	0
269	1	1	-69.62561565770254	-24.10610644424867	72.73881422724298	0	0	0
270	1	1	-70.31522236665785	-23.58435133840799	73.24102354266137	0	0	0
271	1	1	-71.00482907561316	-23.758399810657163	73.94398137658283	0	0	0
272	1	1	-71.69443578456847	-23.236644704816484	74.44619069200121	0	0	0
273	1	1	-72.38404249352378	-23.410693177065657	75.14914852592267	0	0	0
274	1	1	-73.07364920247909	-22.888938071224977	75.65135784134105	0	0	0
275	1	1	-73.7632559114344	-23.06298654347415	76.35431567526251	0	0	0
276	1	1	-74.45286262038971	-22.54123143763347	76.8565249906809	0	0	0
277	1	1	-75.14246932934502	-22.715279909882643	77.55948282460236	0	0	0
278	1	1	-75.83207603830033	-22.193524804041964	78.06169214002074	0	0	0
279	1	1	-76.52168274725564	-22.367573276291136	78.7646499739422	0	0	0
280	1	1	-77.21128945621095	-21.845818170450457	79.26685928936058	0	0	0
281	1	1	-77.90089616516626	-22.01986664269963	79.96981712328204	0	0	0
282	1	1	-78.59050287412157	-21.49811153685895	80.47202643870042	0	0	0
283	1	1	-79.28010958307688	-21.672160009108122	81.17498427262188	0	0	0
284	1	1	-79.96971629203219	-21.150404903267443	81.67719358804027	0	0	0
285	1	1	-80.6593230009875	-21.324453375516615	82.38015142196173	0	0	0
286	1	1	-81.34892970994281	-20.802698269675936	82.88236073738011	0	0	0
287	1	1	-82.03853641889812	-20.97674674192511	83.58531857130157	0	0	0
288	1	1	-82.72814312785343	-20.45499163608443	84.08752788671995	0	0	0
289	1	1	-83.41774983680874	-20.6290401083336	84.79048572064141	0	0	0
290	1	1	-84.10735654576405	-20.107285002492922	85.2926950360598	0	0	0
291	1	1	-84.79696325471936	-20.281333474742095	85.99565286998126	0	0	0
292	1	1	-85.48656996367467	-19.759578368901416	86.49786218539964	0	0	0
293	1	1	-86.17617667262998	-19.933626841150588	87.2008200193211	0	0	0
294	1	1	-86.86578338158529	-19.41187173530991	87.70302933473948	0	0	0
295	1	1	-87.5553900905406	-19.58592020755908	88.40598716866094	0	0	0
296	1	1	-88.24499679949591	-19.0641651017184	88.90819648407933	0	0	0
297	1	1	-88.93460350845122	-19.238213573967574	89.61115431800079	0	0	0
298	1	1	-89.62421021740653	-18.716458468126895	90.11336363341917	0	0	0
299	1	1	-90.31381692636184	-18.890506940376067	90.81632146734063	0	0	0
300	1	1	-91.00342363531715	-18.368751834535388	91.31853078275901	0	0	0
301	1	1	-91.69303034427246	-18.54280030678456	92.02148861668047	0	0	0
302	1	1	-50.123625521227034	-29.634182833208545	55.668868195881714	0	0	0
303	1	1	-49.93062323550035	-30.481912551994682	55.17479892787261	0	0	0
304	1	1	-49.737620949773664	-31.33365394871282	55.66191976587989	0	0	0
305	1	1	-49.54461866404698	-32.181383667498956	55.16785049787078	0	0	0
306	1	1	-49.351616378320294	-33.03312506421709	55.65497133587806	0	0	0
307	1	1	-49.15861409259361	-33.88085478300322	55.16090206786895	0	0	0
308	1	1	-48.965611806866924	-34.732596179721355	55.64802290587623	0	0	0
309	1	1	-48.77260952114024	-35.58032589850749	55.153953637867126	0	0	0
310	1	1	-48.579607235413555	-36.43206729522562	55.641074475874404	0	0	0
311	1	1	-48.38660494968687	-37.279797014011756	55.1470052078653	0	0	0
312	1	1	-48.193602663960185	-38.13153841072989	55.63412604587258	0	0	0
313	1	1	-48.0006003782335	-38.97926812951602	55.14005677786347	0	0	0
314	1	1	-47.807598092506815	-39.831009526234155	55.62717761587075	0	0	0
315	1	1	-47.61459580678013	-40.67873924502029	55.13310834786164	0	0	0
316	1	1	-47.421593521053445	-41.53048064173842	55.62022918586892	0	0	0
317	1	1	-47.22859123532676	-42.378210360524555	55.126159917859816	0	0	0
318	1	1	-47.035588949600076	-43.22995175724269	55.613280755867095	0	0	0
319	1	1	-46.84258666387339	-44.07768147602882	55.11921148785799	0	0	0
320	1	1	-46.649584378146706	-44.929422872746954	55.60633232586527	0	0	0
321	1	1	-46.45658209242002	-45.77715259153309	55.11226305785616	0	0	0
322	1	1	-46.263579806693336	-46.62889398825122	55.59938389586344	0	0	0
323	1	1	-46.07057752096665	-47.476623707037355	55.105314627854334	0	0	0
324	1	1	-45.877575235239966	-48.32836510375549	55.59243546586161	0	0	0
325	1	1	-45.68457294951328	-49.17609482254162	55.098366197852506	0	0	0
326	1	1	-45.4915706637866	-50.027836219259754	55.585487035859785	0	0	0
327	1	1	-45.29856837805991	-50.87556593804589	55.09141776785068	0	0	0
328	1	1	-45.10556609233323	-51.72730733476402	55.57853860585796	0	0	0
329	1	1	-44.91256380660654	-52.575037053550155	55.08446933784885	0	0	0
330	1	1	-44.71956152087986	-53.42677845026829	55.57159017585613	0	0	0
331	1	1	-44.52655923515317	-54.27450816905442	55.077520907847024	0	0	0
332	1	1	-44.33355694942649	-55.126249565772554	55.5646417458543	0	0	0
333	1	1	-44.1405546636998	-55.97397928455869	55.0705724778452	0	0	0
334	1	1	-43.94755237797312	-56.82572068127682	55.557693315852475	0	0	0
335	1	1	-43.75455009224643	-57.673450400062954	55.06362404784337	0	0	0
336	1	1	-43.56154780651975	-58.52519179678109	55.55074488585065	0	0	0
337	1	1	-43.36854552079306	-59.37292151556722	55.05667561784154	0	0	0
338	1	1	-43.17554323506638	-60.22466291228535	55.54379645584882	0	0	0
339	1	1	-42.98254094933969	-61.07239263107149	55.049727187839714	0	0	0
340	1	1	-42.78953866361301	-61.92413402778962	55.53684802584699	0	0	0
341	1	1	-42.59653637788632	-62.771863746575754	55.04277875783789	0	0	0
342	1	1	-42.40353409215964	-63.62360514329389	55.529899595845166	0	0	0
343	1	1	-42.210531806432954	-64.47133486208003	55.03583032783606	0	0	0
344	1	1	-42.01752952070627	-65.32307625879817	55.52295116584334	0	0	0
345	1	1	-41.824527234979584	-66.17080597758431	55.02888189783423	0	0	0
346	1	1	-41.6315249492529	-67.02254737430245	55.51600273584151	0	0	0
347	1	1	-41.438522663526214	-67.87027709308859	55.021933467832405	0	0	0
348	1	1	-41.24552037779953	-68.72201848980673	55.50905430583968	0	0	0
349	1	1	-41.052518092072845	-69.56974820859287	55.01498503783058	0	0	0
350	1	1	-40.85951580634616	-70.42148960531101	55.502105875837856	0	0	0
351	1	1	-40.666513520619475	-71.26921932409715	55.00803660782875	0	0	0
352	1	1	-40.47351123489279	-72.12096072081529	55.49515744583603	0	0	0
353	1	1	-40.280508949166105	-72.96869043960143	55.00108817782692	0	0	0
354	1	1	-40.08750666343942	-73.82043183631957	55.4882090158342	0	0	0
355	1	1	-39.894504377712735	-74.66816155510571	54.994139747825095	0	0	0
356	1	1	-39.70150209198605	-75.51990295182385	55.48126058583237	0	0	0
357	1	1	-39.508499806259366	-76.36763267060999	54.98719131782327	0	0	0
358	1	1	-39.31549752053268	-77.21937406732813	55.474312155830546	0	0	0
359	1	1	-39.122495234805996	-78.06710378611427	54.98024288782144	0	0	0
360	1	1	-38.92949294907931	-78.91884518283241	55.46736372582872	0	0	0
361	1	1	-38.736490663352626	-79.76657490161855	54.97329445781961	0	0	0
362	1	1	-50.65982515849878	-28.37758839670112	54.774899900407156	0	0	0
363	1	1	-51.00302251004385	-27.690091263480358	54.13492859659293	0	0	0
364	1	1	-51.346219861588914	-27.90057410366615	53.21955296228766	0	0	0
365	1	1	-51.68941721313398	-27.213076970445385	52.57958165847343	0	0	0
366	1	1	-52.032614564679044	-27.423559810631176	51.66420602416816	0	0	0
367	1	1	-52.37581191622411	-26.736062677410413	51.02423472035393	0	0	0
368	1	1	-52.719009267769174	-26.946545517596203	50.10885908604866	0	0	0
369	1	1	-53.06220661931424	-26.25904838437544	49.46888778223443	0	0	0
370	1	1	-53.405403970859304	-26.46953122456123	48.55351214792916	0	0	0
371	1	1	-53.74860132240437	-25.782034091340467	47.913540844114934	0	0	0
372	1	1	-54.091798673949434	-25.992516931526257	46.99816520980966	0	0	0
373	1	1	-54.4349960254945	-25.305019798305494	46.358193905995435	0	0	0
374	1	1	-54.778193377039564	-25.515502638491284	45.442818271690165	0	0	0
375	1	1	-55.12139072858463	-24.82800550527052	44.80284696787594	0	0	0
376	1	1	-55.464588080129694	-25.03848834545631	43.887471333570666	0	0	0
377	1	1	-55.80778543167476	-24.35099121223555	43.24750002975644	0	0	0
378	1	1	-56.150982783219824	-24.56147405242134	42.33212439545117	0	0	0
379	1	1	-56.49418013476489	-23.873976919200576	41.69215309163694	0	0	0
380	1	1	-56.837377486309954	-24.084459759386366	40.77677745733167	0	0	0
381	1	1	-57.18057483785502	-23.396962626165603	40.13680615351744	0	0	0
382	1	1	-57.523772189400084	-23.607445466351393	39.22143051921217	0	0	0
383	1	1	-57.86696954094515	-22.91994833313063	38.58145921539794	0	0	0
384	1	1	-58.210166892490214	-23.13043117331642	37.66608358109267	0	0	0
385	1	1	-58.55336424403528	-22.442934040095658	37.02611227727844	0	0	0
386	1	1	-58.896561595580344	-22.653416880281448	36.11073664297317	0	0	0
387	1	1	-59.23975894712541	-21.965919747060685	35.470765339158945	0	0	0
388	1	1	-59.582956298670474	-22.176402587246475	34.555389704853674	0	0	0
389	1	1	-59.92615365021554	-21.488905454025712	33.915418401039446	0	0	0
390	1	1	-60.269351001760604	-21.699388294211502	33.000042766734175	0	0	0
391	1	1	-60.61254835330567	-21.01189116099074	32.36007146291995	0	0	0
392	1	1	-60.955745704850735	-21.22237400117653	31.444695828614677	0	0	0
393	1	1	-61.2989430563958	-20.534876867955766	30.804724524800445	0	0	0
394	1	1	-61.642140407940865	-20.745359708141557	29.889348890495175	0	0	0
395	1	1	-61.98533775948593	-20.057862574920794	29.249377586680943	0	0	0
396	1	1	-62.328535111030995	-20.268345415106584	28.334001952375672	0	0	0
397	1	1	-62.67173246257606	-19.58084828188582	27.69403064856144	0	0	0
398	1	1	-63.014929814121125	-19.79133112207161	26.77865501425617	0	0	0
399	1	1	-63.35812716566619	-19.103833988850848	26.13868371044194	0	0	0
400	1	1	-63.701324517211255	-19.31431682903664	25.223308076136668	0	0	0
401	1	1	-64.04452186875632	-18.626819695815875	24.583336772322436	0	0	0
402	1	1	-64.38771922030138	-18.837302536001665	23.667961138017166	0	0	0
403	1	1	-64.73091657184644	-18.149805402780903	23.027989834202934	0	0	0
404	1	1	-65.0741139233915	-18.360288242966693	22.112614199897664	0	0	0
405	1	1	-65.41731127493655	-17.67279110974593	21.472642896083432	0	0	0
406	1	1	-65.76050862648161	-17.88327394993172	20.55726726177816	0	0	0
407	1	1	-66.10370597802667	-17.195776816710957	19.91729595796393	0	0	0
408	1	1	-66.44690332957173	-17.406259656896747	19.00192032365866	0	0	0
409	1	1	-66.79010068111678	-16.718762523675984	18.361949019844428	0	0	0
410	1	1	-67.13329803266184	-16.929245363861774	17.446573385539157	0	0	0
411	1	1	-67.4764953842069	-16.24174823064101	16.806602081724925	0	0	0
412	1	1	-67.81969273575196	-16.4522310708268	15.891226447419655	0	0	0
413	1	1	-68.16289008729701	-15.764733937606039	15.251255143605423	0	0	0
414	1	1	-68.50608743884207	-15.97521677779183	14.335879509300153	0	0	0
415	1	1	-68.84928479038713	-15.287719644571068	13.695908205485921	0	0	0
416	1	1	-69.19248214193219	-15.49820248475686	12.78053257118065	0	0	0
417	1	1	-69.53567949347725	-14.810705351536097	12.140561267366419	0	0	0
418	1	1	-69.8788768450223	-15.021188191721889	11.225185633061148	0	0	0
419	1	1	-70.22207419656736	-14.333691058501126	10.585214329246917	0	0	0
420	1	1	-70.56527154811242	-14.544173898686918	9.669838694941646	0	0	0
421	1	1	-70.90846889965748	-13.856676765466155	9.029867391127414	0	0	0
422	1	1	-70.21904971115359	-13.681179852914678	8.327085763445297	0	0	0
423	1	1	-69.5296305226497	-13.177804254518303	7.806207476835343	0	0	0
424	1	1	-68.8402113341458	-13.377210283804049	7.109832277673913	0	0	0
425	1	1	-68.15079214564192	-12.873834685407674	6.58895399106396	0	0	0
426	1	1	-67.46137295713802	-13.07324071469342	5.89257879190253	0	0	0
427	1	1	-66.77195376863413	-12.569865116297045	5.371700505292576	0	0	0
428	1	1	-66.08253458013024	-12.76927114558279	4.675325306131146	0	0	0
429	1	1	-65.39311539162635	-12.265895547186416	4.154447019521193	0	0	0
430	1	1	-64.70369620312246	-12.46530157647216	3.4580718203597627	0	0	0
431	1	1	-64.01427701461857	-11.961925978075787	2.937193533749809	0	0	0
432	1	1	-63.32485782611467	-12.161332007361532	2.240818334588379	0	0	0
433	1	1	-62.635438637610775	-11.657956408965157	1.7199400479784255	0	0	0
434	1	1	-61.94601944910688	-11.857362438250902	1.0235648488169955	0	0	0
435	1	1	-61.25660026060298	-11.353986839854528	0.5026865622070419	0	0	0
436	1	1	-60.56718107209908	-11.553392869140273	-0.1936886369543881	0	0	0
437	1	1	-59.877761883595184	-11.050017270743899	-0.7145669235643417	0	0	0
438	1	1	-59.188342695091286	-11.249423300029644	-1.4109421227257717	0	0	0
439	1	1	-58.49892350658739	-10.74604770163327	-1.9318204093357254	0	0	0
440	1	1	-57.80950431808349	-10.945453730919015	-2.6281956084971556	0	0	0
441	1	1	-57.12008512957959	-10.44207813252264	-3.1490738951071093	0	0	0
442	1	1	-56.430665941075695	-10.641484161808386	-3.845449094268539	0	0	0
443	1	1	-55.7412467525718	-10.138108563412011	-4.366327380878492	0	0	0