bb280nuc3bl70bn4d30tot700

701 atoms
700 bonds
708 angles

1 atom types
1 bond types
1 angle types

-1000 1000 xlo xhi
-1000 1000 ylo yhi
-1000 1000 zlo zhi

Masses

1 1

Atoms

1	1	1	0.0	0.0	0.0	0	0	0
2	1	1	0.0	0.0	1.0	0	0	0
3	1	1	0.0	-0.49999999999999994	1.8660254037844388	0	0	0
4	1	1	0.0	0.0	2.7320508075688776	0	0	0
5	1	1	0.0	-0.49999999999999994	3.5980762113533165	0	0	0
6	1	1	0.0	0.0	4.464101615137755	0	0	0
7	1	1	0.0	-0.49999999999999994	5.330127018922194	0	0	0
8	1	1	0.0	0.0	6.196152422706632	0	0	0
9	1	1	0.0	-0.49999999999999994	7.06217782649107	0	0	0
10	1	1	0.0	0.0	7.928203230275509	0	0	0
11	1	1	0.0	-0.49999999999999994	8.794228634059948	0	0	0
12	1	1	0.0	0.0	9.660254037844387	0	0	0
13	1	1	0.0	-0.49999999999999994	10.526279441628827	0	0	0
14	1	1	0.0	0.0	11.392304845413266	0	0	0
15	1	1	0.0	-0.49999999999999994	12.258330249197705	0	0	0
16	1	1	0.0	0.0	13.124355652982144	0	0	0
17	1	1	0.0	-0.49999999999999994	13.990381056766584	0	0	0
18	1	1	0.0	0.0	14.856406460551023	0	0	0
19	1	1	0.0	-0.49999999999999994	15.722431864335462	0	0	0
20	1	1	0.0	0.0	16.5884572681199	0	0	0
21	1	1	0.0	-0.49999999999999994	17.454482671904337	0	0	0
22	1	1	0.0	0.0	18.320508075688775	0	0	0
23	1	1	0.0	-0.49999999999999994	19.186533479473212	0	0	0
24	1	1	0.0	0.0	20.05255888325765	0	0	0
25	1	1	0.0	-0.49999999999999994	20.918584287042087	0	0	0
26	1	1	0.0	0.0	21.784609690826525	0	0	0
27	1	1	0.0	-0.49999999999999994	22.650635094610962	0	0	0
28	1	1	0.0	0.0	23.5166604983954	0	0	0
29	1	1	0.0	-0.49999999999999994	24.382685902179837	0	0	0
30	1	1	0.0	0.0	25.248711305964274	0	0	0
31	1	1	0.0	-0.49999999999999994	26.114736709748712	0	0	0
32	1	1	0.0	0.0	26.98076211353315	0	0	0
33	1	1	0.0	-0.49999999999999994	27.846787517317587	0	0	0
34	1	1	0.0	0.0	28.712812921102024	0	0	0
35	1	1	0.0	-0.49999999999999994	29.578838324886462	0	0	0
36	1	1	0.0	0.0	30.4448637286709	0	0	0
37	1	1	0.0	-0.49999999999999994	31.310889132455337	0	0	0
38	1	1	0.0	0.0	32.17691453623978	0	0	0
39	1	1	0.0	-0.49999999999999994	33.04293994002422	0	0	0
40	1	1	0.0	0.0	33.90896534380866	0	0	0
41	1	1	0.0	-0.49999999999999994	34.7749907475931	0	0	0
42	1	1	0.0	0.0	35.64101615137754	0	0	0
43	1	1	0.0	-0.49999999999999994	36.50704155516198	0	0	0
44	1	1	0.0	0.0	37.373066958946424	0	0	0
45	1	1	0.0	-0.49999999999999994	38.239092362730865	0	0	0
46	1	1	0.0	0.0	39.105117766515306	0	0	0
47	1	1	0.0	-0.49999999999999994	39.97114317029975	0	0	0
48	1	1	0.0	0.0	40.83716857408419	0	0	0
49	1	1	0.0	-0.49999999999999994	41.70319397786863	0	0	0
50	1	1	0.0	0.0	42.56921938165307	0	0	0
51	1	1	0.0	-0.49999999999999994	43.43524478543751	0	0	0
52	1	1	0.0	0.0	44.30127018922195	0	0	0
53	1	1	0.0	-0.49999999999999994	45.16729559300639	0	0	0
54	1	1	0.0	0.0	46.033320996790835	0	0	0
55	1	1	0.0	-0.49999999999999994	46.899346400575276	0	0	0
56	1	1	0.0	0.0	47.76537180435972	0	0	0
57	1	1	0.0	-0.49999999999999994	48.63139720814416	0	0	0
58	1	1	0.0	0.0	49.4974226119286	0	0	0
59	1	1	0.0	-0.49999999999999994	50.36344801571304	0	0	0
60	1	1	0.0	0.0	51.22947341949748	0	0	0
61	1	1	0.0	-0.49999999999999994	52.09549882328192	0	0	0
62	1	1	0.0	0.0	52.96152422706636	0	0	0
63	1	1	0.0	-0.49999999999999994	53.827549630850804	0	0	0
64	1	1	0.0	0.0	54.693575034635245	0	0	0
65	1	1	0.0	-0.49999999999999994	55.559600438419686	0	0	0
66	1	1	0.0	0.0	56.42562584220413	0	0	0
67	1	1	0.0	-0.49999999999999994	57.29165124598857	0	0	0
68	1	1	0.0	0.0	58.15767664977301	0	0	0
69	1	1	0.0	-0.49999999999999994	59.02370205355745	0	0	0
70	1	1	0.0	0.0	59.88972745734189	0	0	0
71	1	1	0.0	-0.49999999999999994	60.75575286112633	0	0	0
72	1	1	0.20312595728895128	0.13026946232874065	61.50508606493575	0	0	0
73	1	1	0.4062519145779021	0.30143222603027825	62.46916238649826	0	0	0
74	1	1	0.609377871866853	1.2219281935412354	62.80296924573203	0	0	0
75	1	1	0.8125038291558038	1.393090957242773	63.76704556729454	0	0	0
76	1	1	1.0156297864447545	2.3135869247537304	64.1008524265283	0	0	0
77	1	1	1.2187557437337053	2.484749688455268	65.06492874809082	0	0	0
78	1	1	1.421881701022656	3.405245655966225	65.3987356073246	0	0	0
79	1	1	1.6250076583116069	3.5764084196677626	66.36281192888711	0	0	0
80	1	1	1.8281336156005576	4.49690438717872	66.69661878812089	0	0	0
81	1	1	2.0312595728895086	4.668067150880257	67.6606951096834	0	0	0
82	1	1	2.2343855301784594	5.588563118391215	67.99450196891718	0	0	0
83	1	1	2.43751148746741	5.759725882092752	68.9585782904797	0	0	0
84	1	1	2.640637444756361	6.68022184960371	69.29238514971347	0	0	0
85	1	1	2.8437634020453118	6.851384613305247	70.25646147127598	0	0	0
86	1	1	3.0468893593342625	7.771880580816204	70.59026833050976	0	0	0
87	1	1	3.2500153166232133	7.943043344517742	71.55434465207227	0	0	0
88	1	1	3.453141273912164	8.8635393120287	71.88815151130605	0	0	0
89	1	1	3.656267231201115	9.034702075730237	72.85222783286856	0	0	0
90	1	1	3.8593931884900656	9.955198043241195	73.18603469210234	0	0	0
91	1	1	4.062519145779016	10.126360806942733	74.15011101366485	0	0	0
92	1	1	4.265645103067968	11.04685677445369	74.48391787289863	0	0	0
93	1	1	4.468771060356919	11.218019538155229	75.44799419446115	0	0	0
94	1	1	4.67189701764587	12.138515505666186	75.78180105369492	0	0	0
95	1	1	4.875022974934821	12.309678269367724	76.74587737525744	0	0	0
96	1	1	5.0781489322237725	13.230174236878682	77.07968423449121	0	0	0
97	1	1	5.281274889512724	13.40133700058022	78.04376055605373	0	0	0
98	1	1	5.484400846801675	14.321832968091178	78.3775674152875	0	0	0
99	1	1	5.687526804090626	14.492995731792716	79.34164373685002	0	0	0
100	1	1	5.890652761379577	15.413491699303673	79.67545059608379	0	0	0
101	1	1	6.093778718668529	15.584654463005212	80.63952691764631	0	0	0
102	1	1	6.29690467595748	16.505150430516167	80.97333377688008	0	0	0
103	1	1	6.500030633246431	16.676313194217705	81.9374100984426	0	0	0
104	1	1	6.703156590535382	17.59680916172866	82.27121695767637	0	0	0
105	1	1	6.9062825478243335	17.7679719254302	83.23529327923889	0	0	0
106	1	1	7.109408505113285	18.688467892941155	83.56910013847266	0	0	0
107	1	1	7.312534462402236	18.859630656642693	84.53317646003518	0	0	0
108	1	1	7.515660419691187	19.78012662415365	84.86698331926895	0	0	0
109	1	1	7.718786376980138	19.951289387855187	85.83105964083147	0	0	0
110	1	1	7.92191233426909	20.871785355366143	86.16486650006524	0	0	0
111	1	1	8.12503829155804	21.04294811906768	87.12894282162776	0	0	0
112	1	1	8.32816424884699	21.963444086578637	87.46274968086153	0	0	0
113	1	1	8.53129020613594	22.134606850280175	88.42682600242405	0	0	0
114	1	1	8.734416163424891	23.05510281779113	88.76063286165783	0	0	0
115	1	1	8.937542120713841	23.22626558149267	89.72470918322034	0	0	0
116	1	1	9.140668078002792	24.146761549003624	90.05851604245412	0	0	0
117	1	1	9.343794035291742	24.317924312705163	91.02259236401663	0	0	0
118	1	1	9.546919992580692	25.23842028021612	91.3563992232504	0	0	0
119	1	1	9.750045949869643	25.409583043917657	92.32047554481292	0	0	0
120	1	1	9.953171907158593	26.330079011428612	92.6542824040467	0	0	0
121	1	1	10.156297864447543	26.50124177513015	93.61835872560921	0	0	0
122	1	1	10.359423821736494	27.421737742641106	93.95216558484299	0	0	0
123	1	1	10.562549779025444	27.592900506342644	94.9162419064055	0	0	0
124	1	1	10.765675736314394	28.5133964738536	95.25004876563928	0	0	0
125	1	1	10.968801693603345	28.68455923755514	96.2141250872018	0	0	0
126	1	1	11.171927650892295	29.605055205066094	96.54793194643557	0	0	0
127	1	1	11.375053608181245	29.776217968767632	97.51200826799808	0	0	0
128	1	1	11.578179565470196	30.696713936278588	97.84581512723186	0	0	0
129	1	1	11.781305522759146	30.867876699980126	98.80989144879437	0	0	0
130	1	1	11.984431480048096	31.788372667491082	99.14369830802815	0	0	0
131	1	1	12.187557437337047	31.95953543119262	100.10777462959066	0	0	0
132	1	1	12.390683394625997	32.88003139870358	100.44158148882444	0	0	0
133	1	1	12.593809351914947	33.05119416240512	101.40565781038696	0	0	0
134	1	1	12.796935309203898	33.97169012991608	101.73946466962073	0	0	0
135	1	1	13.000061266492848	34.142852893617615	102.70354099118325	0	0	0
136	1	1	13.203187223781798	35.063348861128574	103.03734785041702	0	0	0
137	1	1	13.406313181070749	35.23451162483011	104.00142417197954	0	0	0
138	1	1	13.609439138359699	36.15500759234107	104.33523103121331	0	0	0
139	1	1	13.81256509564865	36.32617035604261	105.29930735277583	0	0	0
140	1	1	14.0156910529376	37.24666632355357	105.6331142120096	0	0	0
141	1	1	14.21881701022655	37.41782908725511	106.59719053357212	0	0	0
142	1	1	0.6956099133011473	-1.217834343556415	60.7267579697124	0	0	0
143	1	1	1.391219826602293	-1.8249996750782305	60.34273048538976	0	0	0
144	1	1	2.086829739903439	-2.4611598980139755	60.67653734462353	0	0	0
145	1	1	2.7824396532045848	-3.068325229535791	60.29250986030089	0	0	0
146	1	1	3.4780495665057307	-3.7044854524715363	60.626316719534664	0	0	0
147	1	1	4.173659479806877	-4.311650783993352	60.24228923521202	0	0	0
148	1	1	4.869269393108023	-4.947811006929097	60.576096094445795	0	0	0
149	1	1	5.564879306409169	-5.5549763384509125	60.19206861012315	0	0	0
150	1	1	6.260489219710315	-6.191136561386657	60.525875469356926	0	0	0
151	1	1	6.9560991330114605	-6.798301892908473	60.14184798503428	0	0	0
152	1	1	7.6517090463126065	-7.434462115844218	60.47565484426806	0	0	0
153	1	1	8.347318959613752	-8.041627447366032	60.09162735994541	0	0	0
154	1	1	9.042928872914898	-8.677787670301777	60.42543421917919	0	0	0
155	1	1	9.738538786216044	-9.284953001823592	60.041406734856544	0	0	0
156	1	1	10.43414869951719	-9.921113224759337	60.37521359409032	0	0	0
157	1	1	11.129758612818335	-10.528278556281151	59.991186109767675	0	0	0
158	1	1	11.825368526119481	-11.164438779216896	60.32499296900145	0	0	0
159	1	1	12.520978439420627	-11.77160411073871	59.940965484678806	0	0	0
160	1	1	13.216588352721773	-12.407764333674455	60.27477234391258	0	0	0
161	1	1	13.91219826602292	-13.01492966519627	59.89074485958994	0	0	0
162	1	1	14.607808179324065	-13.651089888132015	60.22455171882371	0	0	0
163	1	1	15.303418092625211	-14.25825521965383	59.84052423450107	0	0	0
164	1	1	15.999028005926357	-14.894415442589574	60.17433109373484	0	0	0
165	1	1	16.694637919227503	-15.501580774111389	59.7903036094122	0	0	0
166	1	1	17.390247832528647	-16.137740997047135	60.12411046864597	0	0	0
167	1	1	18.08585774582979	-16.744906328568952	59.74008298432333	0	0	0
168	1	1	18.781467659130936	-17.3810665515047	60.073889843557104	0	0	0
169	1	1	19.47707757243208	-17.988231883026515	59.68986235923446	0	0	0
170	1	1	20.172687485733224	-18.62439210596226	60.023669218468235	0	0	0
171	1	1	20.86829739903437	-19.231557437484078	59.63964173414559	0	0	0
172	1	1	21.563907312335513	-19.867717660419824	59.973448593379366	0	0	0
173	1	1	22.259517225636657	-20.47488299194164	59.58942110905672	0	0	0
174	1	1	22.9551271389378	-21.111043214877387	59.9232279682905	0	0	0
175	1	1	23.650737052238945	-21.718208546399204	59.53920048396785	0	0	0
176	1	1	24.34634696554009	-22.35436876933495	59.87300734320163	0	0	0
177	1	1	25.041956878841233	-22.961534100856767	59.488979858878984	0	0	0
178	1	1	25.737566792142378	-23.597694323792513	59.82278671811276	0	0	0
179	1	1	26.433176705443522	-24.20485965531433	59.438759233790115	0	0	0
180	1	1	27.128786618744666	-24.841019878250076	59.77256609302389	0	0	0
181	1	1	27.82439653204581	-25.448185209771893	59.388538608701246	0	0	0
182	1	1	28.520006445346954	-26.08434543270764	59.72234546793502	0	0	0
183	1	1	29.2156163586481	-26.691510764229456	59.33831798361238	0	0	0
184	1	1	29.911226271949243	-27.327670987165202	59.67212484284615	0	0	0
185	1	1	30.606836185250387	-27.93483631868702	59.28809735852351	0	0	0
186	1	1	31.30244609855153	-28.570996541622765	59.62190421775728	0	0	0
187	1	1	31.998056011852675	-29.17816187314458	59.23787673343464	0	0	0
188	1	1	32.69366592515382	-29.81432209608033	59.571683592668414	0	0	0
189	1	1	33.38927583845497	-30.421487427602145	59.18765610834577	0	0	0
190	1	1	34.08488575175612	-31.05764765053789	59.521462967579545	0	0	0
191	1	1	34.780495665057266	-31.664812982059708	59.1374354832569	0	0	0
192	1	1	35.476105578358414	-32.30097320499545	59.471242342490676	0	0	0
193	1	1	36.17171549165956	-32.908138536517264	59.08721485816803	0	0	0
194	1	1	36.86732540496071	-33.54429875945301	59.42102171740181	0	0	0
195	1	1	37.56293531826186	-34.15146409097482	59.03699423307916	0	0	0
196	1	1	38.258545231563005	-34.78762431391056	59.37080109231294	0	0	0
197	1	1	38.95415514486415	-35.394789645432375	58.986773607990294	0	0	0
198	1	1	39.6497650581653	-36.03094986836812	59.32058046722407	0	0	0
199	1	1	40.34537497146645	-36.63811519988993	58.936552982901425	0	0	0
200	1	1	41.040984884767596	-37.274275422825674	59.2703598421352	0	0	0
201	1	1	41.736594798068744	-37.88144075434749	58.886332357812556	0	0	0
202	1	1	42.43220471136989	-38.51760097728323	59.22013921704633	0	0	0
203	1	1	43.12781462467104	-39.12476630880504	58.83611173272369	0	0	0
204	1	1	43.82342453797219	-39.760926531740786	59.16991859195746	0	0	0
205	1	1	44.519034451273335	-40.3680918632626	58.78589110763482	0	0	0
206	1	1	45.21464436457448	-41.00425208619834	59.11969796686859	0	0	0
207	1	1	45.91025427787563	-41.611417417720155	58.73567048254595	0	0	0
208	1	1	46.60586419117678	-42.2475776406559	59.069477341779724	0	0	0
209	1	1	47.301474104477926	-42.85474297217771	58.68544985745708	0	0	0
210	1	1	47.99708401777907	-43.490903195113454	59.019256716690855	0	0	0
211	1	1	48.69269393108022	-44.09806852663527	58.63522923236821	0	0	0
212	1	1	-0.8987358705901035	-0.9131454076229786	60.90267020889267	0	0	0
213	1	1	-1.7974717411802053	-1.3443984999645242	60.82333166050347	0	0	0
214	1	1	-2.696207611770307	-1.6287342445397304	61.157138519737245	0	0	0
215	1	1	-3.5949434823604087	-2.059987336881276	61.07779997134804	0	0	0
216	1	1	-4.493679352950511	-2.3443230814564826	61.41160683058182	0	0	0
217	1	1	-5.392415223540612	-2.7755761737980285	61.332268282192615	0	0	0
218	1	1	-6.291151094130714	-3.059911918373235	61.66607514142639	0	0	0
219	1	1	-7.189886964720816	-3.4911650107147807	61.58673659303719	0	0	0
220	1	1	-8.088622835310918	-3.775500755289987	61.92054345227096	0	0	0
221	1	1	-8.98735870590102	-4.206753847631533	61.84120490388176	0	0	0
222	1	1	-9.886094576491121	-4.491089592206739	62.175011763115535	0	0	0
223	1	1	-10.784830447081223	-4.922342684548285	62.09567321472633	0	0	0
224	1	1	-11.683566317671325	-5.2066784291234915	62.42948007396011	0	0	0
225	1	1	-12.582302188261426	-5.637931521465037	62.350141525570905	0	0	0
226	1	1	-13.481038058851528	-5.922267266040244	62.68394838480468	0	0	0
227	1	1	-14.37977392944163	-6.35352035838179	62.60460983641548	0	0	0
228	1	1	-15.278509800031731	-6.637856102956996	62.93841669564925	0	0	0
229	1	1	-16.177245670621833	-7.069109195298542	62.85907814726005	0	0	0
230	1	1	-17.075981541211934	-7.353444939873748	63.192885006493825	0	0	0
231	1	1	-17.974717411802036	-7.784698032215294	63.11354645810462	0	0	0
232	1	1	-18.873453282392138	-8.0690337767905	63.4473533173384	0	0	0
233	1	1	-19.77218915298224	-8.500286869132045	63.368014768949195	0	0	0
234	1	1	-20.67092502357234	-8.784622613707251	63.70182162818297	0	0	0
235	1	1	-21.569660894162443	-9.215875706048797	63.62248307979377	0	0	0
236	1	1	-22.468396764752544	-9.500211450624002	63.95628993902754	0	0	0
237	1	1	-23.367132635342646	-9.931464542965548	63.87695139063834	0	0	0
238	1	1	-24.265868505932747	-10.215800287540754	64.21075824987211	0	0	0
239	1	1	-25.16460437652285	-10.6470533798823	64.13141970148291	0	0	0
240	1	1	-26.06334024711295	-10.931389124457505	64.46522656071669	0	0	0
241	1	1	-26.962076117703052	-11.36264221679905	64.38588801232748	0	0	0
242	1	1	-27.860811988293154	-11.646977961374256	64.71969487156126	0	0	0
243	1	1	-28.759547858883256	-12.078231053715802	64.64035632317206	0	0	0
244	1	1	-29.658283729473357	-12.362566798291008	64.97416318240583	0	0	0
245	1	1	-30.55701960006346	-12.793819890632554	64.89482463401663	0	0	0
246	1	1	-31.45575547065356	-13.078155635207759	65.2286314932504	0	0	0
247	1	1	-32.354491341243666	-13.509408727549305	65.1492929448612	0	0	0
248	1	1	-33.25322721183377	-13.79374447212451	65.48309980409498	0	0	0
249	1	1	-34.15196308242387	-14.224997564466056	65.40376125570577	0	0	0
250	1	1	-35.05069895301397	-14.509333309041262	65.73756811493955	0	0	0
251	1	1	-35.94943482360407	-14.940586401382808	65.65822956655035	0	0	0
252	1	1	-36.848170694194174	-15.224922145958013	65.99203642578412	0	0	0
253	1	1	-37.746906564784275	-15.656175238299559	65.91269787739492	0	0	0
254	1	1	-38.64564243537438	-15.940510982874764	66.2465047366287	0	0	0
255	1	1	-39.54437830596448	-16.37176407521631	66.16716618823949	0	0	0
256	1	1	-40.44311417655458	-16.656099819791514	66.50097304747327	0	0	0
257	1	1	-41.34185004714468	-17.08735291213306	66.42163449908406	0	0	0
258	1	1	-42.24058591773478	-17.371688656708265	66.75544135831784	0	0	0
259	1	1	-43.139321788324885	-17.80294174904981	66.67610280992864	0	0	0
260	1	1	-44.03805765891499	-18.087277493625017	67.00990966916241	0	0	0
261	1	1	-44.93679352950509	-18.518530585966563	66.93057112077321	0	0	0
262	1	1	-45.83552940009519	-18.802866330541768	67.26437798000698	0	0	0
263	1	1	-46.73426527068529	-19.234119422883314	67.18503943161778	0	0	0
264	1	1	-47.63300114127539	-19.51845516745852	67.51884629085156	0	0	0
265	1	1	-48.531737011865495	-19.949708259800065	67.43950774246235	0	0	0
266	1	1	-49.4304728824556	-20.23404400437527	67.77331460169613	0	0	0
267	1	1	-50.3292087530457	-20.665297096716817	67.69397605330693	0	0	0
268	1	1	-51.2279446236358	-20.949632841292022	68.0277829125407	0	0	0
269	1	1	-52.1266804942259	-21.380885933633568	67.9484443641515	0	0	0
270	1	1	-53.025416364816	-21.665221678208773	68.28225122338527	0	0	0
271	1	1	-53.924152235406105	-22.09647477055032	68.20291267499607	0	0	0
272	1	1	-54.822888105996206	-22.380810515125525	68.53671953422985	0	0	0
273	1	1	-55.72162397658631	-22.81206360746707	68.45738098584064	0	0	0
274	1	1	-56.62035984717641	-23.096399352042276	68.79118784507442	0	0	0
275	1	1	-57.51909571776651	-23.527652444383822	68.71184929668522	0	0	0
276	1	1	-58.41783158835661	-23.811988188959027	69.04565615591899	0	0	0
277	1	1	-59.316567458946714	-24.243241281300573	68.96631760752979	0	0	0
278	1	1	-60.215303329536816	-24.52757702587578	69.30012446676356	0	0	0
279	1	1	-61.11403920012692	-24.958830118217325	69.22078591837436	0	0	0
280	1	1	-62.01277507071702	-25.24316586279253	69.55459277760814	0	0	0
281	1	1	-62.91151094130712	-25.674418955134076	69.47525422921893	0	0	0
282	1	1	-63.19165334931804	-25.68805085199464	68.51539257115469	0	0	0
283	1	1	-63.471795757328955	-25.219925591945536	67.67731204272212	0	0	0
284	1	1	-63.75193816533987	-25.71166198996067	66.85286341115012	0	0	0
285	1	1	-64.0320805733508	-25.24353672991157	66.01478288271755	0	0	0
286	1	1	-64.31222298136171	-25.735273127926703	65.19033425114556	0	0	0
287	1	1	-64.59236538937263	-25.2671478678776	64.35225372271299	0	0	0
288	1	1	-64.87250779738355	-25.758884265892735	63.52780509114099	0	0	0
289	1	1	-65.15265020539447	-25.290759005843633	62.68972456270843	0	0	0
290	1	1	-65.43279261340538	-25.782495403858768	61.86527593113643	0	0	0
291	1	1	-65.7129350214163	-25.314370143809665	61.02719540270387	0	0	0
292	1	1	-65.99307742942722	-25.8061065418248	60.20274677113187	0	0	0
293	1	1	-66.27321983743813	-25.337981281775697	59.36466624269931	0	0	0
294	1	1	-66.55336224544905	-25.829717679790832	58.54021761112731	0	0	0
295	1	1	-66.83350465345997	-25.36159241974173	57.70213708269475	0	0	0
296	1	1	-67.11364706147089	-25.853328817756864	56.87768845112275	0	0	0
297	1	1	-67.3937894694818	-25.38520355770776	56.03960792269019	0	0	0
298	1	1	-67.67393187749272	-25.876939955722897	55.21515929111819	0	0	0
299	1	1	-67.95407428550364	-25.408814695673794	54.37707876268563	0	0	0
300	1	1	-68.23421669351455	-25.90055109368893	53.55263013111363	0	0	0
301	1	1	-68.51435910152547	-25.432425833639826	52.71454960268107	0	0	0
302	1	1	-68.79450150953639	-25.92416223165496	51.89010097110907	0	0	0
303	1	1	-69.0746439175473	-25.456036971605858	51.05202044267651	0	0	0
304	1	1	-69.35478632555822	-25.947773369620993	50.22757181110451	0	0	0
305	1	1	-69.63492873356914	-25.47964810957189	49.38949128267195	0	0	0
306	1	1	-69.91507114158006	-25.971384507587025	48.56504265109995	0	0	0
307	1	1	-70.19521354959097	-25.503259247537923	47.72696212266739	0	0	0
308	1	1	-70.47535595760189	-25.994995645553058	46.90251349109539	0	0	0
309	1	1	-70.75549836561281	-25.526870385503955	46.06443296266283	0	0	0
310	1	1	-71.03564077362373	-26.01860678351909	45.23998433109083	0	0	0
311	1	1	-71.31578318163464	-25.550481523469987	44.40190380265827	0	0	0
312	1	1	-71.59592558964556	-26.042217921485122	43.57745517108627	0	0	0
313	1	1	-71.87606799765648	-25.57409266143602	42.73937464265371	0	0	0
314	1	1	-72.1562104056674	-26.065829059451154	41.91492601108171	0	0	0
315	1	1	-72.43635281367831	-25.59770379940205	41.07684548264915	0	0	0
316	1	1	-72.71649522168923	-26.089440197417186	40.25239685107715	0	0	0
317	1	1	-72.99663762970015	-25.621314937368084	39.41431632264459	0	0	0
318	1	1	-73.27678003771106	-26.11305133538322	38.58986769107259	0	0	0
319	1	1	-73.55692244572198	-25.644926075334116	37.75178716264003	0	0	0
320	1	1	-73.8370648537329	-26.13666247334925	36.92733853106803	0	0	0
321	1	1	-74.11720726174381	-25.668537213300148	36.08925800263547	0	0	0
322	1	1	-74.39734966975473	-26.160273611315283	35.26480937106347	0	0	0
323	1	1	-74.67749207776565	-25.69214835126618	34.42672884263091	0	0	0
324	1	1	-74.95763448577657	-26.183884749281315	33.60228021105891	0	0	0
325	1	1	-75.23777689378748	-25.715759489232212	32.76419968262635	0	0	0
326	1	1	-75.5179193017984	-26.207495887247347	31.939751051054348	0	0	0
327	1	1	-75.79806170980932	-25.739370627198245	31.101670522621784	0	0	0
328	1	1	-76.07820411782023	-26.23110702521338	30.277221891049784	0	0	0
329	1	1	-76.35834652583115	-25.762981765164277	29.43914136261722	0	0	0
330	1	1	-76.63848893384207	-26.25471816317941	28.61469273104522	0	0	0
331	1	1	-76.91863134185299	-25.78659290313031	27.776612202612657	0	0	0
332	1	1	-77.1987737498639	-26.278329301145444	26.952163571040657	0	0	0
333	1	1	-77.47891615787482	-25.81020404109634	26.114083042608094	0	0	0
334	1	1	-77.75905856588574	-26.301940439111476	25.289634411036094	0	0	0
335	1	1	-78.03920097389666	-25.833815179062373	24.45155388260353	0	0	0
336	1	1	-78.31934338190757	-26.32555157707751	23.62710525103153	0	0	0
337	1	1	-78.59948578991849	-25.857426317028406	22.789024722598967	0	0	0
338	1	1	-78.8796281979294	-26.34916271504354	21.964576091026967	0	0	0
339	1	1	-79.15977060594032	-25.881037454994438	21.126495562594403	0	0	0
340	1	1	-79.43991301395124	-26.372773853009573	20.302046931022403	0	0	0
341	1	1	-79.72005542196216	-25.90464859296047	19.46396640258984	0	0	0
342	1	1	-80.00019782997308	-26.396384990975605	18.63951777101784	0	0	0
343	1	1	-80.28034023798399	-25.928259730926502	17.801437242585276	0	0	0
344	1	1	-80.56048264599491	-26.419996128941637	16.976988611013276	0	0	0
345	1	1	-80.84062505400583	-25.951870868892534	16.138908082580713	0	0	0
346	1	1	-81.12076746201674	-26.44360726690767	15.314459451008712	0	0	0
347	1	1	-81.40090987002766	-25.975482006858567	14.47637892257615	0	0	0
348	1	1	-81.68105227803858	-26.4672184048737	13.651930291004149	0	0	0
349	1	1	-81.9611946860495	-25.9990931448246	12.813849762571586	0	0	0
350	1	1	-82.24133709406041	-26.490829542839734	11.989401130999585	0	0	0
351	1	1	-82.52147950207133	-26.02270428279063	11.151320602567022	0	0	0
352	1	1	-63.57899481863924	-25.15569693143232	70.00947584580557	0	0	0
353	1	1	-64.24647869597135	-24.973581289697446	70.73148634887127	0	0	0
354	1	1	-64.91396257330346	-24.257244031375933	70.9347748282352	0	0	0
355	1	1	-65.58144645063558	-24.07512838964106	71.65678533130091	0	0	0
356	1	1	-66.2489303279677	-23.358791131319546	71.86007381066484	0	0	0
357	1	1	-66.91641420529982	-23.17667548958467	72.58208431373055	0	0	0
358	1	1	-67.58389808263193	-22.460338231263158	72.78537279309448	0	0	0
359	1	1	-68.25138195996405	-22.278222589528283	73.50738329616019	0	0	0
360	1	1	-68.91886583729617	-21.56188533120677	73.71067177552412	0	0	0
361	1	1	-69.58634971462828	-21.379769689471896	74.43268227858982	0	0	0
362	1	1	-70.2538335919604	-20.663432431150383	74.63597075795376	0	0	0
363	1	1	-70.92131746929252	-20.48131678941551	75.35798126101946	0	0	0
364	1	1	-71.58880134662463	-19.764979531093996	75.5612697403834	0	0	0
365	1	1	-72.25628522395675	-19.58286388935912	76.2832802434491	0	0	0
366	1	1	-72.92376910128887	-18.86652663103761	76.48656872281303	0	0	0
367	1	1	-73.59125297862099	-18.684410989302734	77.20857922587874	0	0	0
368	1	1	-74.2587368559531	-17.96807373098122	77.41186770524267	0	0	0
369	1	1	-74.92622073328522	-17.785958089246346	78.13387820830837	0	0	0
370	1	1	-75.59370461061734	-17.069620830924833	78.33716668767231	0	0	0
371	1	1	-76.26118848794945	-16.88750518918996	79.05917719073801	0	0	0
372	1	1	-76.92867236528157	-16.171167930868446	79.26246567010195	0	0	0
373	1	1	-77.59615624261369	-15.98905228913357	79.98447617316765	0	0	0
374	1	1	-78.2636401199458	-15.272715030812055	80.18776465253158	0	0	0
375	1	1	-78.93112399727792	-15.090599389077179	80.90977515559729	0	0	0
376	1	1	-79.59860787461004	-14.374262130755664	81.11306363496122	0	0	0
377	1	1	-80.26609175194216	-14.192146489020788	81.83507413802693	0	0	0
378	1	1	-80.93357562927427	-13.475809230699273	82.03836261739086	0	0	0
379	1	1	-81.60105950660639	-13.293693588964397	82.76037312045656	0	0	0
380	1	1	-82.2685433839385	-12.577356330642882	82.9636615998205	0	0	0
381	1	1	-82.93602726127062	-12.395240688908006	83.6856721028862	0	0	0
382	1	1	-83.60351113860274	-11.678903430586491	83.88896058225014	0	0	0
383	1	1	-84.27099501593486	-11.496787788851615	84.61097108531584	0	0	0
384	1	1	-84.93847889326697	-10.7804505305301	84.81425956467977	0	0	0
385	1	1	-85.60596277059909	-10.598334888795224	85.53627006774548	0	0	0
386	1	1	-86.27344664793121	-9.881997630473709	85.73955854710941	0	0	0
387	1	1	-86.94093052526333	-9.699881988738833	86.46156905017511	0	0	0
388	1	1	-87.60841440259544	-8.983544730417318	86.66485752953905	0	0	0
389	1	1	-88.27589827992756	-8.801429088682442	87.38686803260475	0	0	0
390	1	1	-88.94338215725968	-8.085091830360927	87.59015651196869	0	0	0
391	1	1	-89.6108660345918	-7.902976188626051	88.31216701503439	0	0	0
392	1	1	-90.27834991192391	-7.186638930304537	88.51545549439832	0	0	0
393	1	1	-90.94583378925603	-7.0045232885696604	89.23746599746403	0	0	0
394	1	1	-91.61331766658815	-6.288186030248147	89.44075447682796	0	0	0
395	1	1	-92.28080154392026	-6.10607038851327	90.16276497989367	0	0	0
396	1	1	-92.94828542125238	-5.389733130191757	90.3660534592576	0	0	0
397	1	1	-93.6157692985845	-5.20761748845688	91.0880639623233	0	0	0
398	1	1	-94.28325317591661	-4.4912802301353665	91.29135244168724	0	0	0
399	1	1	-94.95073705324873	-4.30916458840049	92.01336294475294	0	0	0
400	1	1	-95.61822093058085	-3.5928273300789764	92.21665142411688	0	0	0
401	1	1	-96.28570480791296	-3.4107116883441	92.93866192718258	0	0	0
402	1	1	-96.95318868524508	-2.6943744300225863	93.14195040654651	0	0	0
403	1	1	-97.6206725625772	-2.51225878828771	93.86396090961222	0	0	0
404	1	1	-98.28815643990932	-1.795921529966196	94.06724938897615	0	0	0
405	1	1	-98.95564031724143	-1.6138058882313198	94.78925989204185	0	0	0
406	1	1	-99.62312419457355	-0.8974686299098058	94.99254837140579	0	0	0
407	1	1	-100.29060807190567	-0.7153529881749296	95.71455887447149	0	0	0
408	1	1	-100.95809194923778	0.0009842701465843096	95.91784735383543	0	0	0
409	1	1	-101.6255758265699	0.1830999118814605	96.63985785690113	0	0	0
410	1	1	-102.29305970390202	0.8994371702029744	96.84314633626506	0	0	0
411	1	1	-102.96054358123413	1.0815528119378506	97.56515683933077	0	0	0
412	1	1	-103.62802745856625	1.7978900702593645	97.7684453186947	0	0	0
413	1	1	-104.29551133589837	1.9800057119942407	98.4904558217604	0	0	0
414	1	1	-104.96299521323049	2.6963429703157544	98.69374430112434	0	0	0
415	1	1	-105.6304790905626	2.878458612050631	99.41575480419004	0	0	0
416	1	1	-106.29796296789472	3.5947958703721445	99.61904328355398	0	0	0
417	1	1	-106.96544684522684	3.776911512107021	100.34105378661968	0	0	0
418	1	1	-107.63293072255895	4.493248770428535	100.54434226598362	0	0	0
419	1	1	-108.30041459989107	4.675364412163411	101.26635276904932	0	0	0
420	1	1	-108.96789847722319	5.391701670484925	101.46964124841325	0	0	0
421	1	1	-109.6353823545553	5.573817312219801	102.19165175147896	0	0	0
422	1	1	-62.863897250691316	-26.611374802843418	69.82144301573463	0	0	0
423	1	1	-62.81628356007551	-27.595896762441942	69.65277337550786	0	0	0
424	1	1	-62.76866986945971	-28.234229935524763	70.42105958299044	0	0	0
425	1	1	-62.7210561788439	-29.218751895123287	70.25238994276367	0	0	0
426	1	1	-62.6734424882281	-29.857085068206107	71.02067615024625	0	0	0
427	1	1	-62.62582879761229	-30.84160702780463	70.85200651001948	0	0	0
428	1	1	-62.57821510699649	-31.47994020088745	71.62029271750205	0	0	0
429	1	1	-62.530601416380684	-32.46446216048597	71.45162307727529	0	0	0
430	1	1	-62.48298772576488	-33.10279533356879	72.21990928475786	0	0	0
431	1	1	-62.435374035149074	-34.08731729316732	72.0512396445311	0	0	0
432	1	1	-62.38776034453327	-34.72565046625014	72.81952585201367	0	0	0
433	1	1	-62.340146653917465	-35.71017242584866	72.6508562117869	0	0	0
434	1	1	-62.29253296330166	-36.34850559893148	73.41914241926948	0	0	0
435	1	1	-62.244919272685856	-37.333027558530006	73.25047277904271	0	0	0
436	1	1	-62.19730558207005	-37.971360731612826	74.01875898652528	0	0	0
437	1	1	-62.149691891454246	-38.95588269121135	73.85008934629852	0	0	0
438	1	1	-62.10207820083844	-39.59421586429417	74.61837555378109	0	0	0
439	1	1	-62.05446451022264	-40.578737823892695	74.44970591355433	0	0	0
440	1	1	-62.00685081960683	-41.217070996975515	75.2179921210369	0	0	0
441	1	1	-61.95923712899103	-42.20159295657404	75.04932248081013	0	0	0
442	1	1	-61.91162343837522	-42.83992612965686	75.81760868829271	0	0	0
443	1	1	-61.86400974775942	-43.824448089255384	75.64893904806594	0	0	0
444	1	1	-61.81639605714361	-44.462781262338204	76.41722525554852	0	0	0
445	1	1	-61.76878236652781	-45.44730322193673	76.24855561532175	0	0	0
446	1	1	-61.721168675912004	-46.08563639501955	77.01684182280432	0	0	0
447	1	1	-61.6735549852962	-47.07015835461807	76.84817218257756	0	0	0
448	1	1	-61.625941294680395	-47.70849152770089	77.61645839006013	0	0	0