bb40nuc3bl10bn4d30tot100

101 atoms
100 bonds
108 angles

1 atom types
1 bond types
1 angle types

-1000 1000 xlo xhi
-1000 1000 ylo yhi
-1000 1000 zlo zhi

Masses

1 1

Atoms

1	1	1	0.0	0.0	0.0	0	0	0
2	1	1	0.0	0.0	1.0	0	0	0
3	1	1	0.0	-0.49999999999999994	1.8660254037844388	0	0	0
4	1	1	0.0	0.0	2.7320508075688776	0	0	0
5	1	1	0.0	-0.49999999999999994	3.5980762113533165	0	0	0
6	1	1	0.0	0.0	4.464101615137755	0	0	0
7	1	1	0.0	-0.49999999999999994	5.330127018922194	0	0	0
8	1	1	0.0	0.0	6.196152422706632	0	0	0
9	1	1	0.0	-0.49999999999999994	7.06217782649107	0	0	0
10	1	1	0.0	0.0	7.928203230275509	0	0	0
11	1	1	0.0	-0.49999999999999994	8.794228634059948	0	0	0
12	1	1	0.9365075501775607	-0.7598816092704066	9.029632877062168	0	0	0
13	1	1	1.873015100355121	-1.10264780637607	9.103558127025533	0	0	0
14	1	1	2.8095226505326814	-1.2100097604795137	9.437364986259304	0	0	0
15	1	1	3.7460302007102415	-1.5527759575851772	9.511290236222669	0	0	0
16	1	1	4.682537750887802	-1.6601379116886208	9.84509709545644	0	0	0
17	1	1	5.619045301065362	-2.0029041087942843	9.919022345419805	0	0	0
18	1	1	6.555552851242922	-2.1102660628977277	10.252829204653576	0	0	0
19	1	1	7.492060401420482	-2.453032260003391	10.32675445461694	0	0	0
20	1	1	8.428567951598042	-2.5603942141068345	10.660561313850712	0	0	0
21	1	1	9.365075501775603	-2.903160411212498	10.734486563814077	0	0	0
22	1	1	-0.5612319547423021	-1.3227950024232953	8.704634677994903	0	0	0
23	1	1	-1.1224639094846038	-1.9905593985962247	8.21564653480538	0	0	0
24	1	1	-1.6836958642269058	-2.7479177508341994	8.549453394039151	0	0	0
25	1	1	-2.2449278189692077	-3.4156821470071286	8.060465250849628	0	0	0
26	1	1	-2.8061597737115096	-4.173040499245103	8.3942721100834	0	0	0
27	1	1	-3.3673917284538115	-4.8408048954180325	7.905283966893876	0	0	0
28	1	1	-3.9286236831961134	-5.598163247656007	8.239090826127647	0	0	0
29	1	1	-4.489855637938415	-6.265927643828936	7.750102682938124	0	0	0
30	1	1	-5.051087592680717	-7.023285996066911	8.083909542171895	0	0	0
31	1	1	-5.612319547423018	-7.69105039223984	7.594921398982372	0	0	0
32	1	1	-0.375275595435258	0.08196632284304667	9.5156740072846	0	0	0
33	1	1	-0.7505511908705158	0.22524125595981517	10.431447189361418	0	0	0
34	1	1	-1.1258267863057736	1.0899615623012349	10.765254048595189	0	0	0
35	1	1	-1.5011023817410314	1.2332364954180033	11.681027230672006	0	0	0
36	1	1	-1.8763779771762892	2.097956801759423	12.014834089905778	0	0	0
37	1	1	-2.2516535726115467	2.2412317348761914	12.930607271982595	0	0	0
38	1	1	-2.6269291680468045	3.105952041217611	13.264414131216366	0	0	0
39	1	1	-3.0022047634820623	3.2492269743343796	14.180187313293183	0	0	0
40	1	1	-3.37748035891732	4.1139472806757995	14.513994172526955	0	0	0
41	1	1	-3.752755954352578	4.257222213792568	15.429767354603772	0	0	0
42	1	1	-3.068751595260931	4.004583389063913	16.11410035905654	0	0	0
43	1	1	-2.3847472361692845	3.4436252466402704	16.58043071319644	0	0	0
44	1	1	-1.700742877077638	3.5670001086693945	17.29939989206499	0	0	0
45	1	1	-1.0167385179859916	3.006041966245752	17.76573024620489	0	0	0
46	1	1	-0.3327341588943451	3.129416828274876	18.48469942507344	0	0	0
47	1	1	0.3512702001973014	2.5684586858512337	18.95102977921334	0	0	0
48	1	1	1.0352745592889478	2.691833547880358	19.66999895808189	0	0	0
49	1	1	1.7192789183805943	2.1308754054567154	20.13632931222179	0	0	0
50	1	1	2.403283277472241	2.2542502674858396	20.85529849109034	0	0	0
51	1	1	3.0872876365638873	1.693292125062197	21.32162884523024	0	0	0
52	1	1	-4.567937857900205	3.6904017457610343	15.54890182127477	0	0	0
53	1	1	-5.383119761447831	3.1399535877252425	15.368665061862398	0	0	0
54	1	1	-6.198301664995457	2.708639896360448	15.75524877048156	0	0	0
55	1	1	-7.013483568543083	2.158191738324656	15.575012011069187	0	0	0
56	1	1	-7.828665472090709	1.7268780469598615	15.961595719688349	0	0	0
57	1	1	-8.643847375638334	1.1764298889240696	15.781358960275977	0	0	0
58	1	1	-9.459029279185959	0.745116197559275	16.167942668895137	0	0	0
59	1	1	-10.274211182733584	0.19466803952348322	15.987705909482765	0	0	0
60	1	1	-11.08939308628121	-0.23664565184131142	16.374289618101926	0	0	0
61	1	1	-11.904574989828834	-0.7870938098771032	16.194052858689552	0	0	0
62	1	1	-3.9973871134745784	5.22015997284467	15.543373992518747	0	0	0
63	1	1	-4.242018272596579	5.997285215489561	16.123229106517705	0	0	0
64	1	1	-4.486649431718579	6.888017096049427	15.740146461464564	0	0	0
65	1	1	-4.731280590840579	7.665142338694317	16.32000157546352	0	0	0
66	1	1	-4.975911749962579	8.555874219254184	15.93691893041038	0	0	0
67	1	1	-5.220542909084579	9.332999461899075	16.51677404440934	0	0	0
68	1	1	-5.465174068206579	10.22373134245894	16.133691399356195	0	0	0
69	1	1	-5.709805227328579	11.000856585103831	16.713546513355155	0	0	0
70	1	1	-5.954436386450579	11.891588465663697	16.33046386830201	0	0	0
71	1	1	-6.199067545572579	12.668713708308587	16.91031898230097	0	0	0
72	1	1	-5.920672849781747	13.519070655940753	16.46378851864901	0	0	0
73	1	1	-5.642278153990914	14.478766606700784	16.50226026737885	0	0	0
74	1	1	-5.363883458200082	14.991932093808852	15.690375068476525	0	0	0
75	1	1	-5.085488762409249	15.951628044568883	15.728846817206366	0	0	0
76	1	1	-4.807094066618417	16.464793531676953	14.91696161830404	0	0	0
77	1	1	-4.528699370827584	17.424489482436982	14.95543336703388	0	0	0
78	1	1	-4.250304675036752	17.93765496954505	14.143548168131554	0	0	0
79	1	1	-3.971909979245919	18.89735092030508	14.182019916861394	0	0	0
80	1	1	-3.6935152834550866	19.410516407413148	13.370134717959068	0	0	0
81	1	1	-3.415120587664254	20.370212358173177	13.408606466688909	0	0	0
82	1	1	-5.733211555768947	12.587449095447575	17.791440006599352	0	0	0
83	1	1	-5.267355565965315	12.07651136413204	18.51388089101981	0	0	0
84	1	1	-4.8014995761616825	12.446694657114886	19.31758638830128	0	0	0
85	1	1	-4.33564358635805	11.935756925799351	20.040027272721737	0	0	0
86	1	1	-3.869787596554418	12.305940218782197	20.843732770003207	0	0	0
87	1	1	-3.4039316067507857	11.795002487466663	21.566173654423665	0	0	0
88	1	1	-2.9380756169471534	12.165185780449509	22.369879151705135	0	0	0
89	1	1	-2.472219627143521	11.654248049133974	23.092320036125592	0	0	0
90	1	1	-2.0063636373398888	12.02443134211682	23.896025533407062	0	0	0
91	1	1	-1.5405076475362565	11.513493610801286	24.61846641782752	0	0	0
92	1	1	-7.18829690785874	12.677850582973154	17.05640726489845	0	0	0
93	1	1	-8.1775262701449	12.612719207245123	17.18749186615539	0	0	0
94	1	1	-9.16675563243106	12.69367611411457	17.309439592747765	0	0	0
95	1	1	-10.15598499471722	12.62854473838654	17.440524194004706	0	0	0
96	1	1	-11.14521435700338	12.709501645255987	17.56247192059708	0	0	0
97	1	1	-12.134443719289541	12.644370269527956	17.69355652185402	0	0	0
98	1	1	-13.123673081575701	12.725327176397403	17.815504248446395	0	0	0
99	1	1	-14.112902443861861	12.660195800669372	17.946588849703335	0	0	0
100	1	1	-15.102131806148021	12.74115270753882	18.06853657629571	0	0	0
101	1	1	-16.091361168434183	12.676021331810789	18.19962117755265	0	0	0

Bonds

1	1	1	2
2	1	2	3
3	1	3	4
4	1	4	5
5	1	5	6
6	1	6	7
7	1	7	8
8	1	8	9
9	1	9	10
10	1	10	11
11	1	11	12
12	1	11	22
13	1	11	32
14	1	12	13
15	1	13	14
16	1	14	15
17	1	15	16
18	1	16	17
19	1	17	18
20	1	18	19
21	1	19	20
22	1	20	21
23	1	22	23
24	1	23	24
25	1	24	25
26	1	25	26
27	1	26	27
28	1	27	28
29	1	28	29
30	1	29	30
31	1	30	31
32	1	32	33
33	1	33	34
34	1	34	35
35	1	35	36
36	1	36	37
37	1	37	38
38	1	38	39
39	1	39	40
40	1	40	41
41	1	41	42
42	1	41	52
43	1	41	62
44	1	42	43
45	1	43	44
46	1	44	45
47	1	45	46
48	1	46	47
49	1	47	48
50	1	48	49
51	1	49	50
52	1	50	51
53	1	52	53
54	1	53	54
55	1	54	55
56	1	55	56
57	1	56	57
58	1	57	58
59	1	58	59
60	1	59	60
61	1	60	61
62	1	62	63
63	1	63	64
64	1	64	65
65	1	65	66
66	1	66	67
67	1	67	68
68	1	68	69
69	1	69	70
70	1	70	71
71	1	71	72
72	1	71	82
73	1	71	92
74	1	72	73
75	1	73	74
76	1	74	75
77	1	75	76
78	1	76	77
79	1	77	78
80	1	78	79
81	1	79	80
82	1	80	81
83	1	82	83
84	1	83	84
85	1	84	85
86	1	85	86
87	1	86	87
88	1	87	88
89	1	88	89
90	1	89	90
91	1	90	91
92	1	92	93
93	1	93	94
94	1	94	95
95	1	95	96
96	1	96	97
97	1	97	98
98	1	98	99
99	1	99	100
100	1	100	101

Angles

1	1	1	2	3
2	1	2	3	4
3	1	3	4	5
4	1	4	5	6
5	1	5	6	7
6	1	6	7	8
7	1	7	8	9
8	1	8	9	10
9	1	9	10	11
10	1	10	11	12
11	1	10	11	22
12	1	10	11	32
13	1	11	12	13
14	1	11	22	23
15	1	11	32	33
16	1	12	11	22
17	1	12	11	32
18	1	12	13	14
19	1	13	14	15
20	1	14	15	16
21	1	15	16	17
22	1	16	17	18
23	1	17	18	19
24	1	18	19	20
25	1	19	20	21
26	1	22	11	32
27	1	22	23	24
28	1	23	24	25
29	1	24	25	26
30	1	25	26	27
31	1	26	27	28
32	1	27	28	29
33	1	28	29	30
34	1	29	30	31
35	1	32	33	34
36	1	33	34	35
37	1	34	35	36
38	1	35	36	37
39	1	36	37	38
40	1	37	38	39
41	1	38	39	40
42	1	39	40	41
43	1	40	41	42
44	1	40	41	52
45	1	40	41	62
46	1	41	42	43
47	1	41	52	53
48	1	41	62	63
49	1	42	41	52
50	1	42	41	62
51	1	42	43	44
52	1	43	44	45
53	1	44	45	46
54	1	45	46	47
55	1	46	47	48
56	1	47	48	49
57	1	48	49	50
58	1	49	50	51
59	1	52	41	62
60	1	52	53	54
61	1	53	54	55
62	1	54	55	56
63	1	55	56	57
64	1	56	57	58
65	1	57	58	59
66	1	58	59	60
67	1	59	60	61
68	1	62	63	64
69	1	63	64	65
70	1	64	65	66
71	1	65	66	67
72	1	66	67	68
73	1	67	68	69
74	1	68	69	70
75	1	69	70	71
76	1	70	71	72
77	1	70	71	82
78	1	70	71	92
79	1	71	72	73
80	1	71	82	83
81	1	71	92	93
82	1	72	71	82
83	1	72	71	92
84	1	72	73	74
85	1	73	74	75
86	1	74	75	76
87	1	75	76	77
88	1	76	77	78
89	1	77	78	79
90	1	78	79	80
91	1	79	80	81
92	1	82	71	92
93	1	82	83	84
94	1	83	84	85
95	1	84	85	86
96	1	85	86	87
97	1	86	87	88
98	1	87	88	89
99	1	88	89	90
100	1	89	90	91
101	1	92	93	94
102	1	93	94	95
103	1	94	95	96
104	1	95	96	97
105	1	96	97	98
106	1	97	98	99
107	1	98	99	100
108	1	99	100	101
