bb400nuc3bl100bn4d30tot1000

1001 atoms
1000 bonds
1008 angles

1 atom types
1 bond types
1 angle types

-1000 1000 xlo xhi
-1000 1000 ylo yhi
-1000 1000 zlo zhi

Masses

1 1

Atoms

1	1	1	0.0	0.0	0.0	0	0	0
2	1	1	0.0	0.0	1.0	0	0	0
3	1	1	0.0	-0.49999999999999994	1.8660254037844388	0	0	0
4	1	1	0.0	0.0	2.7320508075688776	0	0	0
5	1	1	0.0	-0.49999999999999994	3.5980762113533165	0	0	0
6	1	1	0.0	0.0	4.464101615137755	0	0	0
7	1	1	0.0	-0.49999999999999994	5.330127018922194	0	0	0
8	1	1	0.0	0.0	6.196152422706632	0	0	0
9	1	1	0.0	-0.49999999999999994	7.06217782649107	0	0	0
10	1	1	0.0	0.0	7.928203230275509	0	0	0
11	1	1	0.0	-0.49999999999999994	8.794228634059948	0	0	0
12	1	1	0.0	0.0	9.660254037844387	0	0	0
13	1	1	0.0	-0.49999999999999994	10.526279441628827	0	0	0
14	1	1	0.0	0.0	11.392304845413266	0	0	0
15	1	1	0.0	-0.49999999999999994	12.258330249197705	0	0	0
16	1	1	0.0	0.0	13.124355652982144	0	0	0
17	1	1	0.0	-0.49999999999999994	13.990381056766584	0	0	0
18	1	1	0.0	0.0	14.856406460551023	0	0	0
19	1	1	0.0	-0.49999999999999994	15.722431864335462	0	0	0
20	1	1	0.0	0.0	16.5884572681199	0	0	0
21	1	1	0.0	-0.49999999999999994	17.454482671904337	0	0	0
22	1	1	0.0	0.0	18.320508075688775	0	0	0
23	1	1	0.0	-0.49999999999999994	19.186533479473212	0	0	0
24	1	1	0.0	0.0	20.05255888325765	0	0	0
25	1	1	0.0	-0.49999999999999994	20.918584287042087	0	0	0
26	1	1	0.0	0.0	21.784609690826525	0	0	0
27	1	1	0.0	-0.49999999999999994	22.650635094610962	0	0	0
28	1	1	0.0	0.0	23.5166604983954	0	0	0
29	1	1	0.0	-0.49999999999999994	24.382685902179837	0	0	0
30	1	1	0.0	0.0	25.248711305964274	0	0	0
31	1	1	0.0	-0.49999999999999994	26.114736709748712	0	0	0
32	1	1	0.0	0.0	26.98076211353315	0	0	0
33	1	1	0.0	-0.49999999999999994	27.846787517317587	0	0	0
34	1	1	0.0	0.0	28.712812921102024	0	0	0
35	1	1	0.0	-0.49999999999999994	29.578838324886462	0	0	0
36	1	1	0.0	0.0	30.4448637286709	0	0	0
37	1	1	0.0	-0.49999999999999994	31.310889132455337	0	0	0
38	1	1	0.0	0.0	32.17691453623978	0	0	0
39	1	1	0.0	-0.49999999999999994	33.04293994002422	0	0	0
40	1	1	0.0	0.0	33.90896534380866	0	0	0
41	1	1	0.0	-0.49999999999999994	34.7749907475931	0	0	0
42	1	1	0.0	0.0	35.64101615137754	0	0	0
43	1	1	0.0	-0.49999999999999994	36.50704155516198	0	0	0
44	1	1	0.0	0.0	37.373066958946424	0	0	0
45	1	1	0.0	-0.49999999999999994	38.239092362730865	0	0	0
46	1	1	0.0	0.0	39.105117766515306	0	0	0
47	1	1	0.0	-0.49999999999999994	39.97114317029975	0	0	0
48	1	1	0.0	0.0	40.83716857408419	0	0	0
49	1	1	0.0	-0.49999999999999994	41.70319397786863	0	0	0
50	1	1	0.0	0.0	42.56921938165307	0	0	0
51	1	1	0.0	-0.49999999999999994	43.43524478543751	0	0	0
52	1	1	0.0	0.0	44.30127018922195	0	0	0
53	1	1	0.0	-0.49999999999999994	45.16729559300639	0	0	0
54	1	1	0.0	0.0	46.033320996790835	0	0	0
55	1	1	0.0	-0.49999999999999994	46.899346400575276	0	0	0
56	1	1	0.0	0.0	47.76537180435972	0	0	0
57	1	1	0.0	-0.49999999999999994	48.63139720814416	0	0	0
58	1	1	0.0	0.0	49.4974226119286	0	0	0
59	1	1	0.0	-0.49999999999999994	50.36344801571304	0	0	0
60	1	1	0.0	0.0	51.22947341949748	0	0	0
61	1	1	0.0	-0.49999999999999994	52.09549882328192	0	0	0
62	1	1	0.0	0.0	52.96152422706636	0	0	0
63	1	1	0.0	-0.49999999999999994	53.827549630850804	0	0	0
64	1	1	0.0	0.0	54.693575034635245	0	0	0
65	1	1	0.0	-0.49999999999999994	55.559600438419686	0	0	0
66	1	1	0.0	0.0	56.42562584220413	0	0	0
67	1	1	0.0	-0.49999999999999994	57.29165124598857	0	0	0
68	1	1	0.0	0.0	58.15767664977301	0	0	0
69	1	1	0.0	-0.49999999999999994	59.02370205355745	0	0	0
70	1	1	0.0	0.0	59.88972745734189	0	0	0
71	1	1	0.0	-0.49999999999999994	60.75575286112633	0	0	0
72	1	1	0.0	0.0	61.62177826491077	0	0	0
73	1	1	0.0	-0.49999999999999994	62.487803668695214	0	0	0
74	1	1	0.0	0.0	63.353829072479655	0	0	0
75	1	1	0.0	-0.49999999999999994	64.21985447626409	0	0	0
76	1	1	0.0	0.0	65.08587988004852	0	0	0
77	1	1	0.0	-0.49999999999999994	65.95190528383296	0	0	0
78	1	1	0.0	0.0	66.81793068761739	0	0	0
79	1	1	0.0	-0.49999999999999994	67.68395609140183	0	0	0
80	1	1	0.0	0.0	68.54998149518626	0	0	0
81	1	1	0.0	-0.49999999999999994	69.41600689897069	0	0	0
82	1	1	0.0	0.0	70.28203230275513	0	0	0
83	1	1	0.0	-0.49999999999999994	71.14805770653956	0	0	0
84	1	1	0.0	0.0	72.014083110324	0	0	0
85	1	1	0.0	-0.49999999999999994	72.88010851410843	0	0	0
86	1	1	0.0	0.0	73.74613391789286	0	0	0
87	1	1	0.0	-0.49999999999999994	74.6121593216773	0	0	0
88	1	1	0.0	0.0	75.47818472546173	0	0	0
89	1	1	0.0	-0.49999999999999994	76.34421012924616	0	0	0
90	1	1	0.0	0.0	77.2102355330306	0	0	0
91	1	1	0.0	-0.49999999999999994	78.07626093681503	0	0	0
92	1	1	0.0	0.0	78.94228634059947	0	0	0
93	1	1	0.0	-0.49999999999999994	79.8083117443839	0	0	0
94	1	1	0.0	0.0	80.67433714816833	0	0	0
95	1	1	0.0	-0.49999999999999994	81.54036255195277	0	0	0
96	1	1	0.0	0.0	82.4063879557372	0	0	0
97	1	1	0.0	-0.49999999999999994	83.27241335952164	0	0	0
98	1	1	0.0	0.0	84.13843876330607	0	0	0
99	1	1	0.0	-0.49999999999999994	85.0044641670905	0	0	0
100	1	1	0.0	0.0	85.87048957087494	0	0	0
101	1	1	0.0	-0.49999999999999994	86.73651497465937	0	0	0
102	1	1	-0.92610308604381	-0.8191517171654056	86.93769960491352	0	0	0
103	1	1	-1.852206172087624	-1.1961375270191454	86.95235474698188	0	0	0
104	1	1	-2.778309258131438	-1.3719387066187427	87.28616160621566	0	0	0
105	1	1	-3.7044123441752523	-1.7489245164724827	87.30081674828402	0	0	0
106	1	1	-4.6305154302190665	-1.92472569607208	87.6346236075178	0	0	0
107	1	1	-5.556618516262881	-2.30171150592582	87.64927874958616	0	0	0
108	1	1	-6.482721602306695	-2.4775126855254173	87.98308560881993	0	0	0
109	1	1	-7.408824688350509	-2.8544984953791572	87.9977407508883	0	0	0
110	1	1	-8.334927774394323	-3.0302996749787545	88.33154761012207	0	0	0
111	1	1	-9.261030860438137	-3.4072854848324945	88.34620275219044	0	0	0
112	1	1	-10.18713394648195	-3.583086664432092	88.68000961142421	0	0	0
113	1	1	-11.113237032525763	-3.9600724742858318	88.69466475349257	0	0	0
114	1	1	-12.039340118569577	-4.135873653885429	89.02847161272635	0	0	0
115	1	1	-12.96544320461339	-4.512859463739169	89.04312675479471	0	0	0
116	1	1	-13.891546290657203	-4.688660643338766	89.37693361402849	0	0	0
117	1	1	-14.817649376701016	-5.065646453192506	89.39158875609685	0	0	0
118	1	1	-15.74375246274483	-5.241447632792103	89.72539561533063	0	0	0
119	1	1	-16.669855548788643	-5.618433442645843	89.74005075739899	0	0	0
120	1	1	-17.595958634832456	-5.79423462224544	90.07385761663276	0	0	0
121	1	1	-18.52206172087627	-6.17122043209918	90.08851275870113	0	0	0
122	1	1	-19.448164806920083	-6.347021611698778	90.4223196179349	0	0	0
123	1	1	-20.374267892963896	-6.724007421552518	90.43697476000327	0	0	0
124	1	1	-21.30037097900771	-6.899808601152115	90.77078161923704	0	0	0
125	1	1	-22.226474065051523	-7.276794411005855	90.7854367613054	0	0	0
126	1	1	-23.152577151095336	-7.452595590605452	91.11924362053918	0	0	0
127	1	1	-24.07868023713915	-7.829581400459192	91.13389876260754	0	0	0
128	1	1	-25.004783323182963	-8.00538258005879	91.46770562184132	0	0	0
129	1	1	-25.930886409226776	-8.382368389912529	91.48236076390968	0	0	0
130	1	1	-26.85698949527059	-8.558169569512126	91.81616762314346	0	0	0
131	1	1	-27.783092581314403	-8.935155379365867	91.83082276521182	0	0	0
132	1	1	-28.709195667358216	-9.110956558965464	92.1646296244456	0	0	0
133	1	1	-29.63529875340203	-9.487942368819205	92.17928476651396	0	0	0
134	1	1	-30.561401839445843	-9.663743548418802	92.51309162574773	0	0	0
135	1	1	-31.487504925489656	-10.040729358272543	92.5277467678161	0	0	0
136	1	1	-32.41360801153347	-10.21653053787214	92.86155362704987	0	0	0
137	1	1	-33.339711097577286	-10.593516347725881	92.87620876911824	0	0	0
138	1	1	-34.2658141836211	-10.769317527325478	93.21001562835201	0	0	0
139	1	1	-35.19191726966492	-11.14630333717922	93.22467077042037	0	0	0
140	1	1	-36.11802035570874	-11.322104516778817	93.55847762965415	0	0	0
141	1	1	-37.044123441752554	-11.699090326632557	93.57313277172251	0	0	0
142	1	1	-37.97022652779637	-11.874891506232155	93.90693963095629	0	0	0
143	1	1	-38.89632961384019	-12.251877316085896	93.92159477302465	0	0	0
144	1	1	-39.822432699884004	-12.427678495685493	94.25540163225843	0	0	0
145	1	1	-40.74853578592782	-12.804664305539234	94.27005677432679	0	0	0
146	1	1	-41.67463887197164	-12.980465485138831	94.60386363356056	0	0	0
147	1	1	-42.600741958015455	-13.357451294992572	94.61851877562893	0	0	0
148	1	1	-43.52684504405927	-13.53325247459217	94.9523256348627	0	0	0
149	1	1	-44.45294813010309	-13.91023828444591	94.96698077693107	0	0	0
150	1	1	-45.379051216146905	-14.086039464045507	95.30078763616484	0	0	0
151	1	1	-46.30515430219072	-14.463025273899248	95.3154427782332	0	0	0
152	1	1	-47.23125738823454	-14.638826453498845	95.64924963746698	0	0	0
153	1	1	-48.157360474278356	-15.015812263352586	95.66390477953534	0	0	0
154	1	1	-49.08346356032217	-15.191613442952184	95.99771163876912	0	0	0
155	1	1	-50.00956664636599	-15.568599252805924	96.01236678083748	0	0	0
156	1	1	-50.935669732409806	-15.744400432405522	96.34617364007126	0	0	0
157	1	1	-51.86177281845362	-16.121386242259263	96.36082878213962	0	0	0
158	1	1	-52.78787590449744	-16.297187421858858	96.6946356413734	0	0	0
159	1	1	-53.71397899054126	-16.674173231712597	96.70929078344176	0	0	0
160	1	1	-54.640082076585074	-16.849974411312193	97.04309764267553	0	0	0
161	1	1	-55.56618516262889	-17.226960221165932	97.0577527847439	0	0	0
162	1	1	-56.49228824867271	-17.402761400765527	97.39155964397767	0	0	0
163	1	1	-57.418391334716524	-17.779747210619266	97.40621478604604	0	0	0
164	1	1	-58.34449442076034	-17.955548390218862	97.74002164527981	0	0	0
165	1	1	-59.27059750680416	-18.3325342000726	97.75467678734817	0	0	0
166	1	1	-60.196700592847975	-18.508335379672197	98.08848364658195	0	0	0
167	1	1	-61.12280367889179	-18.885321189525936	98.10313878865031	0	0	0
168	1	1	-62.04890676493561	-19.06112236912553	98.43694564788409	0	0	0
169	1	1	-62.975009850979426	-19.43810817897927	98.45160078995245	0	0	0
170	1	1	-63.90111293702324	-19.613909358578866	98.78540764918623	0	0	0
171	1	1	-64.82721602306705	-19.990895168432605	98.80006279125459	0	0	0
172	1	1	-65.75331910911086	-20.1666963480322	99.13386965048836	0	0	0
173	1	1	-66.67942219515467	-20.54368215788594	99.14852479255673	0	0	0
174	1	1	-67.60552528119848	-20.719483337485535	99.4823316517905	0	0	0
175	1	1	-68.53162836724229	-21.096469147339274	99.49698679385887	0	0	0
176	1	1	-69.4577314532861	-21.27227032693887	99.83079365309264	0	0	0
177	1	1	-70.38383453932991	-21.64925613679261	99.845448795161	0	0	0
178	1	1	-71.30993762537372	-21.825057316392204	100.17925565439478	0	0	0
179	1	1	-72.23604071141753	-22.202043126245943	100.19391079646314	0	0	0
180	1	1	-73.16214379746134	-22.37784430584554	100.52771765569692	0	0	0
181	1	1	-74.08824688350515	-22.754830115699278	100.54237279776528	0	0	0
182	1	1	-75.01434996954896	-22.930631295298873	100.87617965699906	0	0	0
183	1	1	-75.94045305559277	-23.307617105152612	100.89083479906742	0	0	0
184	1	1	-76.86655614163658	-23.483418284752208	101.2246416583012	0	0	0
185	1	1	-77.79265922768039	-23.860404094605947	101.23929680036956	0	0	0
186	1	1	-78.7187623137242	-24.036205274205543	101.57310365960333	0	0	0
187	1	1	-79.64486539976801	-24.41319108405928	101.5877588016717	0	0	0
188	1	1	-80.57096848581182	-24.588992263658877	101.92156566090547	0	0	0
189	1	1	-81.49707157185563	-24.965978073512616	101.93622080297384	0	0	0
190	1	1	-82.42317465789944	-25.14177925311221	102.27002766220761	0	0	0
191	1	1	-83.34927774394325	-25.51876506296595	102.28468280427597	0	0	0
192	1	1	-84.27538082998706	-25.694566242565546	102.61848966350975	0	0	0
193	1	1	-85.20148391603087	-26.071552052419285	102.63314480557811	0	0	0
194	1	1	-86.12758700207468	-26.24735323201888	102.96695166481189	0	0	0
195	1	1	-87.05369008811849	-26.62433904187262	102.98160680688025	0	0	0
196	1	1	-87.9797931741623	-26.800140221472216	103.31541366611403	0	0	0
197	1	1	-88.9058962602061	-27.177126031325955	103.33006880818239	0	0	0
198	1	1	-89.83199934624992	-27.35292721092555	103.66387566741616	0	0	0
199	1	1	-90.75810243229373	-27.72991302077929	103.67853080948453	0	0	0
200	1	1	-91.68420551833754	-27.905714200378885	104.0123376687183	0	0	0
201	1	1	-92.61030860438134	-28.282700010232624	104.02699281078667	0	0	0
202	1	1	0.3108032554733765	0.10379802869023386	87.47056488913177	0	0	0
203	1	1	0.6216065109467543	0.259677503054745	88.40816977705578	0	0	0
204	1	1	0.9324097664201321	1.149606891891654	88.74197663628955	0	0	0
205	1	1	1.24321302189351	1.305486366256165	89.67958152421356	0	0	0
206	1	1	1.5540162773668877	2.195415755093074	90.01338838344734	0	0	0
207	1	1	1.8648195328402655	2.3512952294575853	90.95099327137135	0	0	0
208	1	1	2.1756227883136434	3.241224618294494	91.28480013060512	0	0	0
209	1	1	2.4864260437870214	3.3971040926590055	92.22240501852913	0	0	0
210	1	1	2.7972292992603993	4.287033481495914	92.5562118777629	0	0	0
211	1	1	3.1080325547337773	4.442912955860425	93.49381676568692	0	0	0
212	1	1	3.418835810207155	5.332842344697334	93.82762362492069	0	0	0
213	1	1	3.729639065680533	5.488721819061845	94.7652285128447	0	0	0
214	1	1	4.040442321153911	6.378651207898754	95.09903537207848	0	0	0
215	1	1	4.351245576627289	6.534530682263265	96.03664026000249	0	0	0
216	1	1	4.662048832100666	7.424460071100174	96.37044711923626	0	0	0
217	1	1	4.972852087574044	7.5803395454646845	97.30805200716027	0	0	0
218	1	1	5.283655343047421	8.470268934301593	97.64185886639405	0	0	0
219	1	1	5.594458598520799	8.626148408666104	98.57946375431806	0	0	0
220	1	1	5.905261853994176	9.516077797503014	98.91327061355183	0	0	0
221	1	1	6.216065109467554	9.671957271867525	99.85087550147584	0	0	0
222	1	1	6.526868364940931	10.561886660704435	100.18468236070962	0	0	0
223	1	1	6.837671620414309	10.717766135068945	101.12228724863363	0	0	0
224	1	1	7.148474875887686	11.607695523905855	101.4560941078674	0	0	0
225	1	1	7.459278131361064	11.763574998270366	102.39369899579141	0	0	0
226	1	1	7.770081386834441	12.653504387107276	102.72750585502519	0	0	0
227	1	1	8.080884642307819	12.809383861471787	103.6651107429492	0	0	0
228	1	1	8.391687897781196	13.699313250308697	103.99891760218297	0	0	0
229	1	1	8.702491153254574	13.855192724673207	104.93652249010698	0	0	0
230	1	1	9.013294408727951	14.745122113510117	105.27032934934076	0	0	0
231	1	1	9.324097664201329	14.901001587874628	106.20793423726477	0	0	0
232	1	1	9.634900919674706	15.790930976711538	106.54174109649854	0	0	0
233	1	1	9.945704175148084	15.946810451076049	107.47934598442255	0	0	0
234	1	1	10.256507430621461	16.83673983991296	107.81315284365633	0	0	0
235	1	1	10.567310686094839	16.99261931427747	108.75075773158034	0	0	0
236	1	1	10.878113941568216	17.882548703114377	109.08456459081411	0	0	0
237	1	1	11.188917197041594	18.038428177478888	110.02216947873812	0	0	0
238	1	1	11.499720452514971	18.928357566315796	110.3559763379719	0	0	0
239	1	1	11.810523707988349	19.084237040680307	111.2935812258959	0	0	0
240	1	1	12.121326963461726	19.974166429517215	111.62738808512968	0	0	0
241	1	1	12.432130218935104	20.130045903881726	112.56499297305369	0	0	0
242	1	1	12.742933474408481	21.019975292718634	112.89879983228747	0	0	0
243	1	1	13.053736729881859	21.175854767083145	113.83640472021148	0	0	0
244	1	1	13.364539985355236	22.065784155920053	114.17021157944525	0	0	0
245	1	1	13.675343240828614	22.221663630284564	115.10781646736926	0	0	0
246	1	1	13.986146496301991	23.11159301912147	115.44162332660304	0	0	0
247	1	1	14.296949751775369	23.267472493485982	116.37922821452705	0	0	0
248	1	1	14.607753007248746	24.15740188232289	116.71303507376082	0	0	0
249	1	1	14.918556262722124	24.3132813566874	117.65063996168483	0	0	0
250	1	1	15.229359518195501	25.20321074552431	117.9844468209186	0	0	0
251	1	1	15.540162773668879	25.35909021988882	118.92205170884262	0	0	0
252	1	1	15.850966029142256	26.249019608725728	119.25585856807639	0	0	0
253	1	1	16.161769284615634	26.40489908309024	120.1934634560004	0	0	0
254	1	1	16.47257254008901	27.294828471927147	120.52727031523418	0	0	0
255	1	1	16.78337579556239	27.450707946291658	121.46487520315819	0	0	0
256	1	1	17.094179051035766	28.340637335128566	121.79868206239196	0	0	0
257	1	1	17.404982306509144	28.496516809493077	122.73628695031597	0	0	0
258	1	1	17.71578556198252	29.386446198329985	123.07009380954975	0	0	0
259	1	1	18.0265888174559	29.542325672694496	124.00769869747376	0	0	0
260	1	1	18.337392072929276	30.432255061531404	124.34150555670753	0	0	0
261	1	1	18.648195328402654	30.588134535895914	125.27911044463154	0	0	0
262	1	1	18.95899858387603	31.478063924732822	125.61291730386532	0	0	0
263	1	1	19.26980183934941	31.633943399097333	126.55052219178933	0	0	0
264	1	1	19.580605094822786	32.523872787934245	126.8843290510231	0	0	0
265	1	1	19.891408350296164	32.679752262298756	127.82193393894711	0	0	0
266	1	1	20.20221160576954	33.56968165113567	128.1557407981809	0	0	0
267	1	1	20.51301486124292	33.72556112550018	129.0933456861049	0	0	0
268	1	1	20.823818116716296	34.61549051433709	129.42715254533866	0	0	0
269	1	1	21.134621372189674	34.7713699887016	130.36475743326267	0	0	0
270	1	1	21.44542462766305	35.66129937753851	130.69856429249643	0	0	0
271	1	1	21.75622788313643	35.81717885190302	131.63616918042044	0	0	0
272	1	1	22.067031138609806	36.707108240739935	131.9699760396542	0	0	0
273	1	1	22.377834394083184	36.862987715104445	132.9075809275782	0	0	0
274	1	1	22.68863764955656	37.75291710394136	133.24138778681197	0	0	0
275	1	1	22.99944090502994	37.90879657830587	134.17899267473598	0	0	0
276	1	1	23.310244160503316	38.79872596714278	134.51279953396974	0	0	0
277	1	1	23.621047415976694	38.95460544150729	135.45040442189375	0	0	0
278	1	1	23.93185067145007	39.8445348303442	135.7842112811275	0	0	0
279	1	1	24.24265392692345	40.00041430470871	136.72181616905152	0	0	0
280	1	1	24.553457182396826	40.890343693545624	137.05562302828528	0	0	0
281	1	1	24.864260437870204	41.046223167910135	137.9932279162093	0	0	0
282	1	1	25.17506369334358	41.93615255674705	138.32703477544305	0	0	0
283	1	1	25.48586694881696	42.09203203111156	139.26463966336706	0	0	0
284	1	1	25.796670204290336	42.98196141994847	139.59844652260082	0	0	0
285	1	1	26.107473459763714	43.13784089431298	140.53605141052483	0	0	0
286	1	1	26.41827671523709	44.02777028314989	140.8698582697586	0	0	0
287	1	1	26.72907997071047	44.1836497575144	141.8074631576826	0	0	0
288	1	1	27.039883226183846	45.073579146351314	142.14127001691637	0	0	0
289	1	1	27.350686481657224	45.229458620715825	143.07887490484038	0	0	0
290	1	1	27.6614897371306	46.119388009552736	143.41268176407414	0	0	0
291	1	1	27.97229299260398	46.27526748391725	144.35028665199815	0	0	0
292	1	1	28.283096248077356	47.16519687275416	144.6840935112319	0	0	0
293	1	1	28.593899503550734	47.32107634711867	145.62169839915592	0	0	0
294	1	1	28.90470275902411	48.21100573595558	145.95550525838968	0	0	0
295	1	1	29.21550601449749	48.36688521032009	146.8931101463137	0	0	0
296	1	1	29.526309269970866	49.256814599157	147.22691700554745	0	0	0
297	1	1	29.837112525444244	49.412694073521514	148.16452189347146	0	0	0
298	1	1	30.14791578091762	50.302623462358426	148.49832875270522	0	0	0
299	1	1	30.458719036391	50.45850293672294	149.43593364062923	0	0	0
300	1	1	30.769522291864376	51.34843232555985	149.769740499863	0	0	0
301	1	1	31.080325547337754	51.50431179992436	150.707345387787	0	0	0
302	1	1	0.6152998305704386	-1.2853566003754724	86.66853609009466	0	0	0
303	1	1	1.2305996611408796	-1.9315059250480628	86.21698634895296	0	0	0
304	1	1	1.8458994917113207	-2.645634134285363	86.55079320818673	0	0	0
305	1	1	2.461199322281762	-3.2917834589579535	86.09924346704503	0	0	0
306	1	1	3.076499152852203	-4.005911668195254	86.4330503262788	0	0	0
307	1	1	3.691798983422644	-4.6520609928678445	85.9815005851371	0	0	0
308	1	1	4.307098813993085	-5.3661892021051445	86.31530744437087	0	0	0
309	1	1	4.922398644563526	-6.012338526777735	85.86375770322917	0	0	0
310	1	1	5.5376984751339675	-6.726466736015035	86.19756456246294	0	0	0
311	1	1	6.152998305704409	-7.372616060687625	85.74601482132124	0	0	0
312	1	1	6.76829813627485	-8.086744269924926	86.07982168055501	0	0	0
313	1	1	7.383597966845291	-8.732893594597517	85.62827193941331	0	0	0
314	1	1	7.998897797415732	-9.447021803834817	85.96207879864708	0	0	0
315	1	1	8.614197627986172	-10.093171128507407	85.51052905750538	0	0	0
316	1	1	9.229497458556613	-10.807299337744707	85.84433591673915	0	0	0
317	1	1	9.844797289127055	-11.453448662417298	85.39278617559745	0	0	0
318	1	1	10.460097119697496	-12.167576871654598	85.72659303483123	0	0	0
319	1	1	11.075396950267937	-12.813726196327188	85.27504329368952	0	0	0
320	1	1	11.690696780838378	-13.527854405564488	85.6088501529233	0	0	0
321	1	1	12.305996611408819	-14.174003730237079	85.15730041178159	0	0	0
322	1	1	12.92129644197926	-14.888131939474379	85.49110727101537	0	0	0
323	1	1	13.536596272549701	-15.53428126414697	85.03955752987366	0	0	0
324	1	1	14.151896103120142	-16.24840947338427	85.37336438910744	0	0	0
325	1	1	14.767195933690584	-16.894558798056863	84.92181464796573	0	0	0
326	1	1	15.382495764261025	-17.608687007294165	85.2556215071995	0	0	0
327	1	1	15.997795594831466	-18.254836331966757	84.8040717660578	0	0	0
328	1	1	16.613095425401905	-18.96896454120406	85.13787862529158	0	0	0
329	1	1	17.228395255972345	-19.61511386587665	84.68632888414987	0	0	0
330	1	1	17.843695086542784	-20.329242075113953	85.02013574338365	0	0	0
331	1	1	18.458994917113223	-20.975391399786545	84.56858600224194	0	0	0
332	1	1	19.074294747683663	-21.689519609023847	84.90239286147572	0	0	0
333	1	1	19.689594578254102	-22.33566893369644	84.45084312033401	0	0	0
334	1	1	20.30489440882454	-23.04979714293374	84.78464997956779	0	0	0
335	1	1	20.92019423939498	-23.695946467606333	84.33310023842608	0	0	0
336	1	1	21.53549406996542	-24.410074676843635	84.66690709765986	0	0	0
337	1	1	22.15079390053586	-25.056224001516227	84.21535735651815	0	0	0
338	1	1	22.7660937311063	-25.77035221075353	84.54916421575193	0	0	0
339	1	1	23.381393561676738	-26.41650153542612	84.09761447461022	0	0	0
340	1	1	23.996693392247177	-27.130629744663423	84.431421333844	0	0	0
341	1	1	24.611993222817617	-27.776779069336015	83.9798715927023	0	0	0
342	1	1	25.227293053388056	-28.490907278573317	84.31367845193607	0	0	0
343	1	1	25.842592883958496	-29.13705660324591	83.86212871079437	0	0	0
344	1	1	26.457892714528935	-29.85118481248321	84.19593557002814	0	0	0
345	1	1	27.073192545099374	-30.497334137155804	83.74438582888644	0	0	0
346	1	1	27.688492375669814	-31.211462346393105	84.07819268812021	0	0	0
347	1	1	28.303792206240253	-31.857611671065698	83.6266429469785	0	0	0
348	1	1	28.919092036810692	-32.571739880303	83.96044980621228	0	0	0
349	1	1	29.53439186738113	-33.21788920497559	83.50890006507058	0	0	0
350	1	1	30.14969169795157	-33.93201741421289	83.84270692430435	0	0	0
351	1	1	30.76499152852201	-34.578166738885486	83.39115718316265	0	0	0
352	1	1	31.38029135909245	-35.29229494812279	83.72496404239642	0	0	0
353	1	1	31.99559118966289	-35.93844427279538	83.27341430125472	0	0	0
354	1	1	32.61089102023333	-36.65257248203268	83.60722116048849	0	0	0
355	1	1	33.226190850803775	-37.298721806705274	83.15567141934679	0	0	0
356	1	1	33.84149068137422	-38.012850015942576	83.48947827858056	0	0	0
357	1	1	34.45679051194466	-38.65899934061517	83.03792853743886	0	0	0
358	1	1	35.072090342515104	-39.37312754985247	83.37173539667263	0	0	0
359	1	1	35.68739017308555	-40.01927687452506	82.92018565553093	0	0	0
360	1	1	36.30269000365599	-40.733405083762364	83.2539925147647	0	0	0
361	1	1	36.91798983422643	-41.379554408434956	82.802442773623	0	0	0
362	1	1	37.533289664796875	-42.09368261767226	83.13624963285677	0	0	0
363	1	1	38.14858949536732	-42.73983194234485	82.68469989171507	0	0	0
364	1	1	38.76388932593776	-43.45396015158215	83.01850675094884	0	0	0
365	1	1	39.379189156508204	-44.100109476254744	82.56695700980714	0	0	0
366	1	1	39.99448898707865	-44.814237685492046	82.90076386904092	0	0	0
367	1	1	40.60978881764909	-45.46038701016464	82.44921412789921	0	0	0
368	1	1	41.22508864821953	-46.17451521940194	82.78302098713299	0	0	0
369	1	1	41.840388478789976	-46.82066454407453	82.33147124599128	0	0	0
370	1	1	42.45568830936042	-47.534792753311834	82.66527810522506	0	0	0
371	1	1	43.07098813993086	-48.180942077984426	82.21372836408335	0	0	0
372	1	1	43.686287970501304	-48.89507028722173	82.54753522331713	0	0	0
373	1	1	44.30158780107175	-49.54121961189432	82.09598548217542	0	0	0
374	1	1	44.91688763164219	-50.25534782113162	82.4297923414092	0	0	0
375	1	1	45.53218746221263	-50.901497145804214	81.97824260026749	0	0	0
376	1	1	46.147487292783076	-51.615625355041516	82.31204945950127	0	0	0
377	1	1	46.76278712335352	-52.26177467971411	81.86049971835956	0	0	0
378	1	1	47.37808695392396	-52.97590288895141	82.19430657759334	0	0	0
379	1	1	47.993386784494405	-53.622052213624	81.74275683645163	0	0	0
380	1	1	48.60868661506485	-54.336180422861304	82.07656369568541	0	0	0
381	1	1	49.22398644563529	-54.982329747533896	81.6250139545437	0	0	0
382	1	1	49.83928627620573	-55.6964579567712	81.95882081377748	0	0	0
383	1	1	50.454586106776176	-56.34260728144379	81.50727107263577	0	0	0
384	1	1	51.06988593734662	-57.05673549068109	81.84107793186955	0	0	0
385	1	1	51.68518576791706	-57.702884815353684	81.38952819072784	0	0	0
386	1	1	52.300485598487505	-58.417013024590986	81.72333504996162	0	0	0
387	1	1	52.91578542905795	-59.06316234926358	81.27178530881991	0	0	0
388	1	1	53.53108525962839	-59.77729055850088	81.60559216805369	0	0	0
389	1	1	54.146385090198834	-60.42343988317347	81.15404242691199	0	0	0
390	1	1	54.76168492076928	-61.137568092410774	81.48784928614576	0	0	0
391	1	1	55.37698475133972	-61.783717417083366	81.03629954500406	0	0	0
392	1	1	55.99228458191016	-62.49784562632067	81.37010640423783	0	0	0
393	1	1	56.607584412480605	-63.14399495099326	80.91855666309613	0	0	0
394	1	1	57.22288424305105	-63.85812316023056	81.2523635223299	0	0	0
395	1	1	57.83818407362149	-64.50427248490315	80.8008137811882	0	0	0
396	1	1	58.453483904191934	-65.21840069414046	81.13462064042197	0	0	0
397	1	1	59.06878373476238	-65.86455001881305	80.68307089928027	0	0	0
398	1	1	59.68408356533282	-66.57867822805035	81.01687775851404	0	0	0
399	1	1	60.29938339590326	-67.22482755272294	80.56532801737234	0	0	0
400	1	1	60.914683226473706	-67.93895576196024	80.89913487660611	0	0	0
401	1	1	61.52998305704415	-68.58510508663284	80.44758513546441	0	0	0
402	1	1	61.14858146613502	-68.8449456052402	79.56044606443785	0	0	0
403	1	1	60.7671798752259	-68.62640455977342	78.66224083293545	0	0	0
404	1	1	60.38577828431678	-69.2950025853332	78.02387612004041	0	0	0
405	1	1	60.00437669340766	-69.07646153986641	77.12567088853801	0	0	0
406	1	1	59.622975102498536	-69.74505956542619	76.48730617564297	0	0	0
407	1	1	59.241573511589415	-69.52651851995941	75.58910094414057	0	0	0
408	1	1	58.860171920680294	-70.19511654551918	74.95073623124553	0	0	0
409	1	1	58.47877032977117	-69.9765755000524	74.05253099974313	0	0	0
410	1	1	58.09736873886205	-70.64517352561218	73.41416628684809	0	0	0
411	1	1	57.71596714795293	-70.4266324801454	72.51596105534568	0	0	0
412	1	1	57.33456555704381	-71.09523050570517	71.87759634245064	0	0	0
413	1	1	56.95316396613469	-70.8766894602384	70.97939111094824	0	0	0
414	1	1	56.57176237522557	-71.54528748579817	70.3410263980532	0	0	0
415	1	1	56.19036078431645	-71.32674644033139	69.4428211665508	0	0	0
416	1	1	55.808959193407325	-71.99534446589116	68.80445645365576	0	0	0
417	1	1	55.427557602498204	-71.77680342042439	67.90625122215336	0	0	0
418	1	1	55.04615601158908	-72.44540144598416	67.26788650925832	0	0	0
419	1	1	54.66475442067996	-72.22686040051738	66.36968127775592	0	0	0
420	1	1	54.28335282977084	-72.89545842607716	65.73131656486088	0	0	0
421	1	1	53.90195123886172	-72.67691738061038	64.83311133335847	0	0	0
422	1	1	53.5205496479526	-73.34551540617015	64.19474662046343	0	0	0
423	1	1	53.13914805704348	-73.12697436070337	63.29654138896103	0	0	0
424	1	1	52.75774646613436	-73.79557238626315	62.65817667606599	0	0	0
425	1	1	52.376344875225236	-73.57703134079637	61.75997144456359	0	0	0
426	1	1	51.994943284316115	-74.24562936635614	61.12160673166855	0	0	0
427	1	1	51.613541693406994	-74.02708832088936	60.22340150016615	0	0	0
428	1	1	51.23214010249787	-74.69568634644914	59.58503678727111	0	0	0
429	1	1	50.85073851158875	-74.47714530098236	58.686831555768705	0	0	0
430	1	1	50.46933692067963	-75.14574332654213	58.048466842873665	0	0	0
431	1	1	50.08793532977051	-74.92720228107535	57.15026161137126	0	0	0
432	1	1	49.70653373886139	-75.59580030663513	56.51189689847622	0	0	0
433	1	1	49.32513214795227	-75.37725926116835	55.61369166697382	0	0	0
434	1	1	48.943730557043146	-76.04585728672812	54.97532695407878	0	0	0
435	1	1	48.562328966134025	-75.82731624126134	54.07712172257638	0	0	0
436	1	1	48.180927375224904	-76.49591426682112	53.43875700968134	0	0	0
437	1	1	47.79952578431578	-76.27737322135434	52.54055177817894	0	0	0
438	1	1	47.41812419340666	-76.94597124691411	51.9021870652839	0	0	0
439	1	1	47.03672260249754	-76.72743020144733	51.003981833781495	0	0	0
440	1	1	46.65532101158842	-77.39602822700711	50.365617120886455	0	0	0
441	1	1	46.2739194206793	-77.17748718154033	49.46741188938405	0	0	0
442	1	1	45.89251782977018	-77.8460852071001	48.82904717648901	0	0	0
443	1	1	45.51111623886106	-77.62754416163332	47.93084194498661	0	0	0
444	1	1	45.129714647951936	-78.2961421871931	47.29247723209157	0	0	0
445	1	1	44.748313057042814	-78.07760114172632	46.39427200058917	0	0	0
446	1	1	44.36691146613369	-78.7461991672861	45.75590728769413	0	0	0
447	1	1	43.98550987522457	-78.52765812181931	44.85770205619173	0	0	0
448	1	1	43.60410828431545	-79.19625614737909	44.21933734329669	0	0	0
449	1	1	43.22270669340633	-78.97771510191231	43.321132111794284	0	0	0
450	1	1	42.84130510249721	-79.64631312747208	42.682767398899244	0	0	0
451	1	1	42.45990351158809	-79.4277720820053	41.78456216739684	0	0	0
452	1	1	42.07850192067897	-80.09637010756508	41.1461974545018	0	0	0
453	1	1	41.697100329769846	-79.8778290620983	40.2479922229994	0	0	0
454	1	1	41.315698738860725	-80.54642708765807	39.60962751010436	0	0	0
455	1	1	40.934297147951604	-80.3278860421913	38.71142227860196	0	0	0
456	1	1	40.55289555704248	-80.99648406775107	38.07305756570692	0	0	0
457	1	1	40.17149396613336	-80.77794302228429	37.174852334204516	0	0	0
458	1	1	39.79009237522424	-81.44654104784406	36.536487621309476	0	0	0
459	1	1	39.40869078431512	-81.22800000237729	35.638282389807074	0	0	0