#atom_style bond #no stiffness
atom_style angle #with stiffness

boundary        p p p
###
# Pair interactions require lists of neighbours to be calculated
###

#neighbor 0.3 bin
neighbor 4 bin

neigh_modify every 1 delay 1 check yes
atom_modify sort 0 0
### Generate RESTART file, SPECIAL format, not a .txt file ###
### Useful if simulation crashes ###

restart 1000000 linear/restarts3/$f.restart
restart 1000000 linear/restarts3/bb1200nuc0bl0bn0d30tot1200.restart
#############################



### READ "start" data file ###

read_data linear/$f.dat
read_data linear/bb1200nuc0bl0bn0d30tot1200.dat
Reading data file ...
  orthogonal box = (-1000 -1000 -1000) to (1000 1000 1000)
  1 by 1 by 1 MPI processor grid
  reading atoms ...
  1200 atoms
  scanning bonds ...
  1 = max bonds/atom
  scanning angles ...
  1 = max angles/atom
  reading bonds ...
  1199 bonds
  reading angles ...
  1198 angles
Finding 1-2 1-3 1-4 neighbors ...
  special bond factors lj:    0        0        0       
  special bond factors coul:  0        0        0       
     2 = max # of 1-2 neighbors
     2 = max # of 1-3 neighbors
     4 = max # of 1-4 neighbors
     6 = max # of special neighbors
  special bonds CPU = 0.002 seconds
  read_data CPU = 0.071 seconds

######################

### READ "REstart" data file ###

######################



###
# Define groups (atom type 1 is group 'all')
###
group all type 1
1200 atoms in group all


###
# Dump configs - "simple dumpings"
###

###
# Dump configs + box coords
###

dump   1   all   custom   1000  linear/trjs3/$f.lammpstrj  id  x y z  ix iy iz
dump   1   all   custom   1000  linear/trjs3/bb1200nuc0bl0bn0d30tot1200.lammpstrj  id  x y z  ix iy iz
dump_modify   1   format line "%d %.5f %.5f %.5f %d %d %d"

########################################################################


###################################################################
# Stiffness term
#
# E = K * (1+cos(theta)), K>0
#
angle_style   cosine
#change this coefficient to change stiffness (e.g. 1,5,10)
angle_coeff   1 1.0
###################################################################

###################################################################
# Pair interaction between non-bonded atoms
#
#  Lennard-Jones 12-6 potential with cutoff:
#  potential E=4epsilon[ (sigma/r)^12 - (sigma/r)^6]  for r<r_cut
#
#  1.12246 = 2^(1/6) is the minimum of the potential


pair_style      lj/cut 1.12246152962189
#pair_style      lj/cut 3

#
#  pair_modify shift yes adds a constant to the potential such

#  that E(r_cut)=0. Forces remains unchanged.
#

pair_modify     shift yes

#
#  pair_coeff for lj/cut, specify 4:
#    * atom type interacting with
#    * atom type
#    * epsilon (energy units)
#    * sigma (distance units)
#

pair_coeff      1 1 1.0 1.0
###################################################################

###################################################################
# Pair interaction between non-bonded atoms
#
#  soft potential, for PUSHING apart overlapping atoms
#  potential E=A*(1 + cos(pi*r/r_c))
#
#  1.12246 = 2^(1/6) is the cut-off r_c

#pair_style     soft 1.12246152962189

#
#  pair_coeff for soft, specify 3:
#    * atom type interacting with
#    * atom type
#    * A
#
#

#pair_coeff      1 1 100.0
###################################################################

###################################################################
# Pair interaction between bonded atoms
#
# Fene potential + Lennard Jones 12-6:

#
#  E= - 0.5 K R0^2 ln[ 1- (r/R0)^2]
#     + 4epsilon[ (sigma/r)^12 - (sigma/r)^6] + epsilon
#

bond_style   fene


#
# For style fene, specify:
#   * bond type
#   * K (energy/distance^2)
#   * R0 (distance)
#   * epsilon (energy)  (LJ component)
#   * sigma (distance)  (LJ component)
#


special_bonds fene #<=== I M P O R T A N T (new command)
Finding 1-2 1-3 1-4 neighbors ...
  special bond factors lj:    0        1        1       
  special bond factors coul:  0        1        1       
     2 = max # of 1-2 neighbors
     6 = max # of special neighbors
  special bonds CPU = 0.000 seconds

bond_coeff   1   30   2   1.0   1.0


###################################################

###################################################################
# Pair interaction between bonded atoms
#
# Harmonic potential:
#
#  E= K * (R-R0)^2
#

#bond_style   harmonic

#
# For style harmonic, specify:
#   * bond type
#   * K (energy/distance^2)
#   * R0 (distance)
#

#bond_coeff   1   60.0   1.0
#bond_coeff   2   harmonic 0.1   1.0

###################################################
compute 1 all gyration
variable rog equal c_1
#compute 2 all coord/atom cutoff 1.1

#dump 2 all custom 10000 contact_number.dump id c_2


###
# Set up fixes
###
thermo_style   custom   step  temp enthalpy c_1
fix 1 all nve   ###NVE ensemble

fix 2 all   langevin   1.0 1.0 1.0  158102   ###Langevin integrator Tstart Tstop 1/friction rndseed


##### Sample thermodynamic info  (temperature, energy, pressure, etc.) #####
thermo 1000









############################################################################

###
# set timestep of integrator

timestep 0.01

###
# run integration for a number of steps
###
#run 0
#variable r equal c_1
#if "$r < 63.1" then "quit 1"

# lj potential minimum, cause molecule to explore
run 100000
Generated 0 of 0 mixed pair_coeff terms from geometric mixing rule
Last active /omp style is angle_style cosine/omp
Neighbor list info ...
  update: every = 1 steps, delay = 1 steps, check = yes
  max neighbors/atom: 2000, page size: 100000
  master list distance cutoff = 5.1224615
  ghost atom cutoff = 5.1224615
  binsize = 2.5612308, bins = 781 781 781
  1 neighbor lists, perpetual/occasional/extra = 1 0 0
  (1) pair lj/cut/omp, perpetual
      attributes: half, newton on, omp
      pair build: half/bin/newton/omp
      stencil: half/bin/3d
      bin: standard
WARNING: Communication cutoff 5.12246152962189 is shorter than a bond length based estimate of 5.455. This may lead to errors. (src/comm.cpp:723)
Per MPI rank memory allocation (min/avg/max) = 1860 | 1860 | 1860 Mbytes
   Step          Temp         Enthalpy         c_1      
         0   0              13.41568       300.00019    
      1000   0.98290378     18.649844      299.90104    
      2000   0.97638858     18.809177      299.86817    
      3000   1.0183097      18.961455      299.70601    
      4000   0.99152789     19.2652        299.47714    
      5000   1.0142961      19.05951       299.13731    
      6000   0.97783309     18.989553      298.9807     
      7000   1.0159231      18.870079      299.03832    
      8000   1.0254236      18.813191      298.97829    
      9000   1.0246361      18.847901      298.84457    
     10000   1.0172579      19.072909      298.79054    
     11000   1.003558       18.97694       298.65237    
     12000   0.99331139     18.927992      298.28195    
     13000   1.0187908      19.3951        298.02987    
     14000   1.0340876      18.464559      297.86019    
     15000   1.001377       18.674854      297.56474    
     16000   0.99149996     18.994239      297.28052    
     17000   0.95330452     19.082111      297.105      
     18000   1.0075392      19.080172      296.89884    
     19000   1.0500744      19.033985      296.80577    
     20000   0.97297758     18.96513       296.51655    
     21000   1.0170471      18.941779      296.45392    
     22000   1.0003643      18.75238       296.28322    
     23000   0.99296898     19.257634      296.20954    
     24000   1.0537682      18.979525      295.84519    
     25000   1.0064458      19.026092      295.61966    
     26000   1.0661485      19.157478      295.57403    
     27000   1.0317766      19.389245      295.48439    
     28000   1.0075614      19.265842      295.4405     
     29000   0.97059573     18.615387      295.1727     
     30000   1.0319549      19.159479      294.95686    
     31000   1.0261592      19.038353      294.79043    
     32000   1.0279622      19.275502      294.75046    
     33000   0.97509093     18.770906      294.90746    
     34000   0.98880213     18.67583       294.92182    
     35000   0.96510125     18.921537      294.86295    
     36000   1.0221756      19.068008      294.83144    
     37000   0.93869399     18.696505      294.69812    
     38000   0.96546537     18.859322      294.7771     
     39000   1.00442        18.836339      294.6393     
     40000   1.0094289      19.278325      294.38017    
     41000   0.99413485     18.794084      294.04215    
     42000   1.0252858      19.104977      294.21602    
     43000   1.0075795      19.287764      294.13736    
     44000   1.0005272      19.071742      293.83304    
     45000   0.95188734     18.820355      293.48783    
     46000   1.0034498      18.893154      293.36763    
     47000   0.97212554     19.028071      293.04039    
     48000   0.98679698     18.814146      292.84147    
     49000   1.0167589      19.175093      292.64453    
     50000   1.0263736      19.056042      292.70186    
     51000   0.99439885     18.966261      292.63958    
     52000   0.95249109     18.637171      292.37811    
     53000   0.99725252     19.201305      292.13368    
     54000   0.97702066     18.681433      292.21573    
     55000   1.0131691      19.593891      291.93987    
     56000   0.99095278     19.587829      291.90655    
     57000   0.98816535     19.302707      291.74966    
     58000   0.97063261     19.285206      291.64233    
     59000   1.0163796      19.218761      291.49429    
     60000   0.99552995     19.21891       291.30129    
     61000   1.0119291      19.309183      291.39234    
     62000   0.97338187     19.01831       291.40096    
     63000   1.0188309      19.684251      291.10582    
     64000   0.9941236      19.59831       291.08851    
     65000   0.99592031     18.953081      291.1275     
     66000   1.0541678      19.473551      290.94754    
     67000   1.0035706      18.78685       290.72768    
     68000   1.00382        19.369695      290.61934    
     69000   0.99106407     19.161051      290.64114    
     70000   0.99828723     19.232074      290.47402    
     71000   0.94369417     19.287151      290.40031    
     72000   1.0290194      19.110496      290.40746    
     73000   0.98612254     18.702576      290.30025    
     74000   1.0253038      19.4732        290.17486    
     75000   1.0075933      19.571588      289.96122    
     76000   0.97213915     19.077839      289.82446    
     77000   0.97431884     19.159337      289.65528    
     78000   0.98505134     19.616086      289.53938    
     79000   0.9632511      19.475996      289.40344    
     80000   1.0517482      19.441404      289.32168    
     81000   1.0011026      19.163422      289.0611     
     82000   0.97782653     18.753465      288.98686    
     83000   0.99371281     19.123698      289.12146    
     84000   0.9750727      18.986014      289.09801    
     85000   1.0099972      19.445076      288.95931    
     86000   0.97301308     19.462157      288.68739    
     87000   0.9954826      19.126303      288.45871    
     88000   1.0081788      19.050745      288.23249    
     89000   0.95390128     19.107929      288.03369    
     90000   0.95239834     19.214711      287.9606     
     91000   0.99823684     18.900545      287.85211    
     92000   1.0434188      19.402007      287.85398    
     93000   1.0064747      19.40791       287.81374    
     94000   0.99031833     19.215734      287.74921    
     95000   0.98602065     19.725012      287.93339    
     96000   0.97363392     19.124248      287.65477    
     97000   0.97961678     19.173498      287.43841    
     98000   0.98663681     19.495473      287.20027    
     99000   0.99702864     19.14815       286.81054    
    100000   0.97553236     19.270068      286.80176    
Loop time of 350.662 on 2 procs for 100000 steps with 1200 atoms

Performance: 246390.895 tau/day, 285.175 timesteps/s
102.9% CPU use with 1 MPI tasks x 2 OpenMP threads

MPI task timing breakdown:
Section |  min time  |  avg time  |  max time  |%varavg| %total
---------------------------------------------------------------
Pair    | 0.97067    | 0.97067    | 0.97067    |   0.0 |  0.28
Bond    | 2.2691     | 2.2691     | 2.2691     |   0.0 |  0.65
Neigh   | 341.88     | 341.88     | 341.88     |   0.0 | 97.50
Comm    | 0.050283   | 0.050283   | 0.050283   |   0.0 |  0.01
Output  | 0.22536    | 0.22536    | 0.22536    |   0.0 |  0.06
Modify  | 4.9182     | 4.9182     | 4.9182     |   0.0 |  1.40
Other   |            | 0.3497     |            |       |  0.10

Nlocal:           1200 ave        1200 max        1200 min
Histogram: 1 0 0 0 0 0 0 0 0 0
Nghost:              0 ave           0 max           0 min
Histogram: 1 0 0 0 0 0 0 0 0 0
Neighs:           5668 ave        5668 max        5668 min
Histogram: 1 0 0 0 0 0 0 0 0 0

Total # of neighbors = 5668
Ave neighs/atom = 4.7233333
Ave special neighs/atom = 1.9983333
Neighbor list builds = 1073
Dangerous builds = 0

# Replace lj potential, now collapse
pair_style      lj/cut 3

# Cutoff simul when gyration under 5
# Variable created with equal requires v_ + 'name'
fix 3 all halt 1000 v_rog < 7

run 5000000
Generated 0 of 0 mixed pair_coeff terms from geometric mixing rule
Last active /omp style is angle_style cosine/omp
Per MPI rank memory allocation (min/avg/max) = 1860 | 1860 | 1860 Mbytes
   Step          Temp         Enthalpy         c_1      
    100000   0.97553236     18.850864      286.80176    
    101000   0.99729428     18.905291      286.76136    
    102000   0.99977188     18.7462        286.67067    
    103000   0.97793043     18.661942      286.48339    
    104000   1.0134358      18.971817      286.44567    
    105000   1.0000644      18.885211      286.32693    
    106000   0.99359353     19.55931       285.92932    
    107000   1.039494       18.963317      285.83816    
    108000   1.0026829      18.824074      285.84782    
    109000   0.98472473     19.125201      285.62802    
    110000   1.0084984      19.147052      285.36277    
    111000   0.96703242     18.724216      285.34386    
    112000   1.0340068      18.704752      285.28746    
    113000   1.0014209      19.009104      285.23653    
    114000   0.99972438     18.891411      285.07922    
    115000   1.0028898      18.900898      284.7652     
    116000   1.0137326      19.107553      284.72745    
    117000   0.98442385     18.627371      284.73065    
    118000   0.98158334     19.173357      284.48886    
    119000   0.98189419     19.105075      284.33207    
    120000   1.0178152      19.117875      284.25986    
    121000   1.0151577      18.813802      284.13299    
    122000   1.0093128      18.593905      283.91575    
    123000   0.9800558      18.677642      283.73287    
    124000   1.028269       19.18713       283.55338    
    125000   0.99964946     18.858428      283.49255    
    126000   0.97339439     18.92978       283.34502    
    127000   1.0397562      18.899971      283.25339    
    128000   0.97026581     18.985295      283.07989    
    129000   0.99523858     19.290378      282.844      
    130000   1.0040507      18.951881      282.70736    
    131000   0.96435788     19.004324      282.63004    
    132000   0.99681619     18.809596      282.39436    
    133000   1.00019        19.015509      282.35222    
    134000   1.0370032      19.261768      282.24211    
    135000   0.99456784     18.973909      281.83553    
    136000   0.9871298      19.082874      281.69982    
    137000   0.98821509     18.712954      281.58994    
    138000   0.93788201     18.564589      281.29428    
    139000   1.0092209      19.133245      281.14285    
    140000   1.0280947      19.261794      280.90169    
    141000   0.98850059     19.011026      280.62384    
    142000   1.0079509      18.870985      280.40731    
    143000   1.0048452      19.262511      280.38654    
    144000   0.99031959     19.086481      280.07735    
    145000   0.98094627     19.178773      279.96618    
    146000   0.97496865     18.453579      279.99964    
    147000   0.95834054     18.860771      279.93344    
    148000   0.97536105     18.881374      279.85711    
    149000   0.99999807     18.723104      279.59508    
    150000   1.0134426      19.113234      279.45207    
    151000   0.96733781     18.969479      279.43358    
    152000   1.0051535      18.547446      279.19868    
    153000   1.0075745      19.0801        279.27782    
    154000   1.0029193      19.069652      279.19764    
    155000   0.9963554      18.977227      279.13075    
    156000   1.0079267      19.123645      279.06024    
    157000   0.98525574     19.109275      278.9314     
    158000   0.97866528     18.620568      278.88228    
    159000   1.0255608      18.927363      278.79099    
    160000   1.0109062      19.233922      278.76486    
    161000   0.99938044     19.261447      278.64385    
    162000   1.030818       18.955536      278.68792    
    163000   0.99814752     18.882325      278.43609    
    164000   1.0131705      18.982838      278.28904    
    165000   1.0097453      19.171948      278.20933    
    166000   0.9920337      18.876722      277.87036    
    167000   1.0092026      19.160734      277.82802    
    168000   0.99195266     19.164911      277.75012    
    169000   1.0217932      19.025116      277.39163    
    170000   0.95190844     18.571932      277.37781    
    171000   1.0350932      19.150263      277.58716    
    172000   1.0356302      18.736699      277.41998    
    173000   1.0075946      19.041167      277.60172    
    174000   0.99484409     18.729505      277.53924    
    175000   1.018807       19.122247      277.24264    
    176000   0.97037267     18.422822      277.04101    
    177000   1.0209004      19.290928      276.91311    
    178000   1.0121328      18.892873      276.76737    
    179000   1.0087078      18.752943      276.81274    
    180000   0.9852814      18.50504       276.58221    
    181000   0.96725294     18.783923      276.4833     
    182000   0.97993061     18.716465      276.27806    
    183000   0.97762373     18.883645      276.06741    
    184000   1.0063531      19.205435      275.8906     
    185000   0.9898645      18.93219       275.77997    
    186000   0.9930154      19.430045      275.7841     
    187000   1.0194906      18.732844      275.52893    
    188000   0.98096745     19.07475       275.43034    
    189000   0.99971817     19.099229      275.29195    
    190000   0.97593584     18.687815      275.25851    
    191000   0.98965814     18.849144      274.91069    
    192000   0.99939955     18.921199      274.69649    
    193000   1.0296598      18.582228      274.80497    
    194000   0.99873119     18.90489       274.84067    
    195000   1.0135674      18.909727      274.75273    
    196000   0.99632851     19.101846      274.59443    
    197000   0.98383099     19.072931      274.52578    
    198000   0.99680139     18.863054      274.45209    
    199000   0.98406619     19.110783      274.26783    
    200000   0.99416134     18.747646      274.1738     
    201000   0.96949995     18.878117      274.18831    
    202000   1.0459016      18.96174       274.14357    
    203000   1.0101366      18.740728      274.01706    
    204000   1.0057174      18.763403      273.90087    
    205000   1.0542759      19.415753      273.76861    
    206000   1.0012252      19.109855      273.80922    
    207000   0.993768       19.103181      273.66144    
    208000   0.98909282     19.251157      273.40204    
    209000   1.0113436      18.980766      273.17955    
    210000   0.99240674     19.215582      272.85605    
    211000   0.94924273     18.293987      272.87859    
    212000   1.0153631      19.140877      272.6608     
    213000   1.0039202      18.530293      272.27423    
    214000   1.0409729      19.280256      272.28415    
    215000   0.9887479      18.802991      272.20703    
    216000   0.9902371      19.021025      272.13909    
    217000   1.0052006      19.043493      271.96697    
    218000   1.0088615      18.782463      271.90632    
    219000   1.0218484      18.90954       271.84283    
    220000   1.0138412      19.600734      271.68141    
    221000   0.99350462     18.667814      271.48877    
    222000   1.0173717      18.692096      271.51075    
    223000   1.001381       18.973442      271.59642    
    224000   0.98575074     18.704795      271.46154    
    225000   0.96869877     19.089664      271.46818    
    226000   1.0513516      18.853118      271.41996    
    227000   1.0074513      18.655575      271.3786     
    228000   0.98386533     18.892926      271.36514    
    229000   0.99534338     19.061533      271.30043    
    230000   0.97021704     18.811482      271.31461    
    231000   0.97888881     19.165094      271.17078    
    232000   1.0143793      19.29441       271.06553    
    233000   0.95351541     19.027044      270.9929     
    234000   1.016999       18.673114      270.77029    
    235000   0.9929738      19.112263      270.47638    
    236000   0.99631096     19.102621      270.22273    
    237000   1.0539934      18.969266      270.28128    
    238000   1.0267609      18.724032      270.12095    
    239000   1.0149569      18.867719      270.08498    
    240000   1.026051       19.181236      270.01368    
    241000   1.0122872      19.237844      269.83266    
    242000   1.0420272      19.372537      269.77245    
    243000   1.0102752      18.31454       269.75608    
    244000   1.003266       18.638146      269.55403    
    245000   0.99599828     19.126332      269.26679    
    246000   0.95592971     18.728153      269.26381    
    247000   0.97444754     18.639008      269.17614    
    248000   0.9837176      19.037977      269.05442    
    249000   1.0049586      19.160621      268.95703    
    250000   1.0190386      18.560013      268.88316    
    251000   0.97749387     18.899711      268.87972    
    252000   1.0049941      18.892575      268.7313     
    253000   0.97261246     18.371777      268.69654    
    254000   0.99955066     18.971904      268.78688    
    255000   0.99724687     18.904939      268.57063    
    256000   1.0053607      19.128835      268.30008    
    257000   0.99752825     18.599263      268.3112     
    258000   1.003299       18.983644      268.20949    
    259000   1.0243444      18.897565      268.21962    
    260000   1.014437       18.60441       268.22607    
    261000   1.0046263      18.542423      268.29942    
    262000   1.0054328      19.04962       268.10211    
    263000   0.9526651      18.837635      268.07271    
    264000   0.96696923     18.615246      267.94901    
    265000   1.025314       18.68692       267.76181    
    266000   0.98410782     19.176095      267.71513    
    267000   1.0113404      19.001876      267.79235    
    268000   0.95982857     18.96144       267.717      
    269000   0.99732347     18.785329      267.64367    
    270000   1.010394       19.38679       267.5202     
    271000   0.99806777     18.961807      267.36402    
    272000   0.98800639     19.382056      267.24236    
    273000   1.0504527      19.145129      267.2085     
    274000   0.97699867     19.030461      267.21387    
    275000   1.0139522      18.893238      267.17205    
    276000   0.95606964     18.842177      266.90068    
    277000   0.99920991     18.915959      266.76972    
    278000   1.0388087      18.878396      266.58011    
    279000   1.0257961      18.827242      266.41973    
    280000   1.0059117      19.042695      266.36143    
    281000   1.0043607      19.05716       266.27105    
    282000   0.98025726     19.070714      266.37351    
    283000   0.98752308     18.94708       266.34221    
    284000   0.98756046     18.546658      266.30601    
    285000   0.96951632     19.265457      266.10865    
    286000   1.0178639      19.160678      265.79959    
    287000   1.0288023      19.19083       265.74655    
    288000   1.0173032      18.42865       265.54368    
    289000   0.96282752     19.173168      265.58217    
    290000   1.0072169      18.846272      265.49244    
    291000   1.0108846      19.147597      265.20689    
    292000   1.0249205      19.204706      264.95805    
    293000   1.0000986      18.873009      264.8375     
    294000   0.98812804     18.786068      264.61993    
    295000   0.95894743     18.957699      264.42164    
    296000   1.0069074      18.71322       264.38857    
    297000   0.97837316     18.519379      264.23583    
    298000   0.98579344     18.730396      264.12527    
    299000   1.0045786      19.56977       263.92549    
    300000   0.95184199     18.920637      263.86642    
    301000   0.98217777     19.152119      263.5343     
    302000   0.97776605     19.265453      263.35598    
    303000   0.98239652     18.689125      263.32165    
    304000   1.0405806      19.19837       263.23317    
    305000   1.0402019      18.995653      263.13125    
    306000   0.9507052      18.759217      262.72807    
    307000   1.0068126      18.709438      262.51588    
    308000   1.0127047      19.04946       262.48857    
    309000   1.0225014      18.626293      262.29502    
    310000   0.95977765     19.214118      262.26328    
    311000   1.0094234      18.530291      262.15997    
    312000   0.99827064     18.655076      262.12048    
    313000   1.0183979      18.94303       261.98376    
    314000   0.96841832     18.73249       262.05627    
    315000   1.0077686      18.901495      261.88596    
    316000   1.0046024      19.096891      261.74305    
    317000   0.99008407     18.752395      261.51153    
    318000   1.0134387      18.997313      261.47075    
    319000   1.0145278      18.963946      261.47143    
    320000   1.0214504      19.081414      261.27478    
    321000   0.98500952     18.882567      261.17724    
    322000   1.0088209      18.881693      261.01968    
    323000   0.98371449     18.826841      261.05321    
    324000   1.0043072      18.405282      261.05529    
    325000   1.0276463      18.913876      260.98931    
    326000   0.99554431     19.247729      260.97822    
    327000   0.98363187     18.829372      260.96473    
    328000   0.97526991     19.194247      261.01463    
    329000   0.96351874     19.336885      261.03423    
    330000   1.0203909      19.116246      261.01682    
    331000   1.015272       19.18083       260.81535    
    332000   1.0122352      18.674946      260.70065    
    333000   1.0547443      19.369884      260.39486    
    334000   0.98984314     18.988262      260.53168    
    335000   1.016044       18.771086      260.61136    
    336000   1.0222948      18.913155      260.40653    
    337000   1.0379355      19.181757      260.35774    
    338000   1.0054178      18.744491      260.32679    
    339000   1.0237426      19.19184       260.32808    
    340000   1.026296       18.552842      260.38659    
    341000   0.9839799      18.641074      260.31537    
    342000   1.0007933      18.400956      260.26134    
    343000   0.98972069     18.971123      260.36352    
    344000   1.0019419      18.75357       260.29621    
    345000   0.98618306     18.553571      259.94791    
    346000   1.0039834      18.621192      259.86354    
    347000   0.99137241     18.625908      259.75543    
    348000   1.0306419      18.764213      259.69244    
    349000   1.0378882      18.774758      259.73379    
    350000   1.0201405      18.556156      259.73618    
    351000   1.016299       19.37202       259.452      
    352000   1.0213031      18.820474      259.35667    
    353000   1.0507752      19.074377      259.21994    
    354000   0.9811849      18.76968       258.97903    
    355000   0.94802621     18.731222      258.6669     
    356000   0.97235577     18.788353      258.46472    
    357000   0.98322908     18.516007      258.35768    
    358000   0.99202413     19.132088      258.20531    
    359000   1.0021512      19.073399      258.23341    
    360000   0.9576136      18.857161      258.0447     
    361000   0.97354406     18.757794      257.99558    
    362000   0.97908311     18.830503      258.00616    
    363000   1.0070811      19.42576       257.76926    
    364000   1.0021958      19.065192      257.63824    
    365000   1.0043951      19.129949      257.35888    
    366000   0.99662207     19.105146      257.09662    
    367000   0.99522066     18.869717      257.08805    
    368000   0.97703991     18.40408       256.95612    
    369000   1.0451113      19.293303      256.9529     
    370000   0.94785856     19.208783      256.81474    
    371000   1.0164748      18.373493      256.91631    
    372000   1.0132638      18.867149      256.88122    
    373000   1.009826       18.812957      256.74634    
    374000   1.0286244      18.989991      256.39749    
    375000   1.0343388      18.894894      256.15876    
    376000   1.0033693      19.022741      255.90483    
    377000   1.0078516      19.208201      255.59556    
    378000   0.9907149      19.097796      255.49585    
    379000   0.99491195     18.762863      255.38663    
    380000   0.99697803     18.826743      255.46711    
    381000   1.0020718      18.989799      255.50857    
    382000   1.0276561      18.932494      255.57793    
    383000   1.006087       18.834633      255.52392    
    384000   0.9831016      18.967727      255.4827     
    385000   0.97422415     18.849876      255.1559     
    386000   1.0392675      18.741145      255.22891    
    387000   1.0051254      18.929513      255.09315    
    388000   0.9857715      19.393598      254.90278    
    389000   1.0061231      18.510503      254.88565    
    390000   1.0125751      18.738065      254.87626    
    391000   0.99311025     18.726102      254.82853    
    392000   1.0444196      18.592964      254.72544    
    393000   1.052737       18.840355      254.51227    
    394000   1.0540317      18.44811       254.39133    
    395000   0.99055268     18.481093      254.40332    
    396000   0.98732431     18.569432      254.53674    
    397000   0.99921494     18.766758      254.45686    
    398000   1.0242148      18.880014      254.4834     
    399000   0.98754098     18.938225      254.33403    
    400000   0.97366718     18.464409      254.26227    
    401000   0.99749259     18.693488      254.20248    
    402000   1.0229867      19.252006      254.10244    
    403000   0.99689007     18.677858      253.99758    
    404000   1.0024778      19.238931      253.84261    
    405000   0.99114138     18.793199      253.8456     
    406000   1.0283847      18.883141      253.7035     
    407000   0.97439731     18.83328       253.72208    
    408000   0.9756617      18.533591      253.74492    
    409000   0.9899296      18.502431      253.67573    
    410000   1.0177053      18.918011      253.64444    
    411000   0.99289224     18.840831      253.58343    
    412000   0.97888244     19.163387      253.35916    
    413000   0.98833991     18.52882       253.23937    
    414000   1.0555337      18.895266      252.96084    
    415000   1.062578       19.101036      252.83765    
    416000   0.97486508     18.838014      252.82509    
    417000   0.96440177     18.807788      252.63242    
    418000   1.0030918      19.010075      252.37425    
    419000   0.97682469     18.412153      252.18103    
    420000   0.95288081     18.548959      251.99418    
    421000   0.99307791     18.891969      251.77212    
    422000   0.99270613     18.92766       251.67444    
    423000   0.97337357     19.10156       251.58151    
    424000   0.98621949     18.753274      251.56618    
    425000   0.9941088      18.790481      251.44928    
    426000   1.0276259      19.219959      251.23658    
    427000   1.0570995      18.916987      251.37143    
    428000   0.99795952     18.414699      251.45001    
    429000   1.0545245      19.227114      251.35694    
    430000   1.0303894      18.883665      251.13172    
    431000   0.96048437     18.965824      251.08589    
    432000   0.97413313     19.081679      251.11993    
    433000   0.97618941     18.99187       251.31386    
    434000   0.9823554      19.073619      251.08343    
    435000   1.0010704      18.586835      250.79719    
    436000   0.99800604     18.931261      250.69847    
    437000   0.97603972     18.839468      250.4254     
    438000   1.0124012      18.726088      250.25344    
    439000   1.0179781      18.473092      250.10307    
    440000   0.9802968      18.441002      250.0329     
    441000   0.98150666     18.829809      249.93546    
    442000   1.0711239      19.165739      249.65726    
    443000   0.99357528     19.167515      249.58966    
    444000   1.0200024      19.201565      249.5224     
    445000   0.98052811     18.746482      249.42527    
    446000   1.0111594      19.13222       249.28178    
    447000   0.9742952      18.484171      249.22883    
    448000   0.98440919     18.812159      249.06906    
    449000   1.0314241      19.407692      248.95126    
    450000   1.0182652      18.876925      248.95125    
    451000   0.98912066     19.003481      248.90683    
    452000   0.96656651     18.668582      248.9015     
    453000   0.98183294     18.976249      248.90576    
    454000   1.0044855      19.123652      248.66681    
    455000   1.0029202      18.834043      248.5621     
    456000   1.0300858      19.009866      248.41466    
    457000   1.0165766      18.859141      248.32775    
    458000   1.0150018      18.721105      247.98755    
    459000   1.0006927      19.108509      248.01476    
    460000   0.99520885     18.465555      248.07618    
    461000   0.99467493     19.277478      247.84137    
    462000   1.0049351      18.614536      247.83054    
    463000   1.0105652      18.803542      247.52538    
    464000   1.0140946      18.619722      247.42462    
    465000   1.0323065      18.917781      247.44857    
    466000   0.98339644     18.461438      247.27042    
    467000   0.98469383     18.892837      247.17913    
    468000   0.98471741     18.51556       246.97866    
    469000   1.0071353      18.675471      246.85565    
    470000   0.9892725      19.028693      246.56998    
    471000   0.96544306     18.543054      246.33731    
    472000   1.0076633      18.641731      246.2563     
    473000   1.0128164      18.700987      245.88155    
    474000   1.0045827      18.615292      245.87808    
    475000   1.0176929      19.033023      245.76305    
    476000   1.0222135      18.854228      245.81558    
    477000   1.0310901      19.112591      245.77912    
    478000   1.0038844      18.857954      245.6295     
    479000   1.0032002      19.202483      245.43748    
    480000   0.98176526     18.739713      245.11466    
    481000   0.9806209      18.948715      245.08389    
    482000   1.0337185      18.838086      244.93764    
    483000   0.95580181     18.983357      244.90581    
    484000   0.98824431     18.743579      245.02411    
    485000   1.0086586      18.775986      244.87931    
    486000   0.97427968     19.10872       244.79685    
    487000   0.97214194     18.817904      244.78955    
    488000   0.99695433     18.498693      244.85707    
    489000   0.9801951      19.085987      244.6122     
    490000   1.0429839      18.974553      244.52964    
    491000   1.0147467      18.8464        244.26396    
    492000   1.0143313      18.678223      244.26172    
    493000   1.0100798      18.882818      244.34473    
    494000   1.0096008      19.168932      244.06906    
    495000   1.0160945      18.875945      243.95047    
    496000   1.0321783      19.157683      243.82888    
    497000   0.98881315     19.027025      243.84113    
    498000   1.0034459      18.739477      243.80808    
    499000   1.0261014      19.124277      243.51623    
    500000   0.9902971      18.611559      243.50525    
    501000   0.99316181     18.345735      243.40579    
    502000   0.98258569     18.263002      243.46526    
    503000   1.0158011      19.009693      243.10855    
    504000   0.99985968     19.099072      243.04924    
    505000   0.97643582     18.876465      242.88561    
    506000   1.050893       19.586591      242.59148    
    507000   1.0018012      19.024492      242.34086    
    508000   1.0063038      18.957524      242.15097    
    509000   0.99682305     19.154154      241.92166    
    510000   1.0091469      18.991008      241.80604    
    511000   0.99231173     18.857628      241.89436    
    512000   0.97518627     18.616463      241.8975     
    513000   0.97464858     18.936958      241.99115    
    514000   1.0075026      18.67519       241.91309    
    515000   1.0136409      19.123598      242.04922    
    516000   0.99129656     18.97529       241.96684    
    517000   0.96193139     19.203401      242.07125    
    518000   1.0150441      19.584146      241.97097    
    519000   1.0454565      18.844072      241.89085    
    520000   1.020562       18.690657      241.75567    
    521000   0.98915482     18.595956      241.80999    
    522000   1.0352296      18.98599       241.89633    
    523000   1.0192997      19.290633      241.83868    
    524000   1.0029604      18.632532      241.76261    
    525000   1.0025653      18.787386      241.55217    
    526000   1.0062919      19.004977      241.53371    
    527000   0.99545995     18.690918      241.57671    
    528000   0.99740859     19.015593      241.3177     
    529000   1.0230699      19.028122      241.30157    
    530000   1.0168842      19.092638      241.36917    
    531000   0.9958282      18.6979        241.05202    
    532000   0.98628568     18.292466      240.95299    
    533000   0.98093876     19.310891      240.96031    
    534000   1.0354439      19.158443      240.7608     
    535000   1.0345813      19.272204      240.74314    
    536000   0.96634398     19.304194      240.83895    
    537000   0.98597024     18.677998      240.85759    
    538000   0.98459384     18.743757      240.59458    
    539000   0.97152238     18.512304      240.51561    
    540000   0.99914522     19.052961      240.39203    
    541000   1.0149427      19.297436      240.45213    
    542000   1.0150478      19.18115       240.59284    
    543000   0.9576301      18.752527      240.50656    
    544000   1.0004555      19.051501      240.33105    
    545000   1.0391628      18.955478      240.22292    
    546000   0.99639311     18.784664      240.18859    
    547000   1.0077197      19.09429       240.11255    
    548000   0.9740484      18.734181      240.11308    
    549000   0.99290713     18.527208      240.21187    
    550000   0.99772492     18.886347      240.31205    
    551000   0.96872624     19.016162      240.20767    
    552000   0.94581184     18.380444      240.04734    
    553000   1.0027869      18.808014      239.87938    
    554000   0.96463555     18.600965      239.90777    
    555000   1.0000643      18.632228      239.80281    
    556000   1.009002       19.152401      239.77609    
    557000   0.999502       18.961007      239.75367    
    558000   0.98986584     18.23274       239.6119     
    559000   0.98453259     19.267623      239.75268    
    560000   1.0147969      18.540889      239.59199    
    561000   0.99409987     18.883011      239.28786    
    562000   1.0306552      18.816229      239.35773    
    563000   1.0247406      19.124021      239.15303    
    564000   0.95285356     18.853778      239.10264    
    565000   1.0255186      19.200659      238.8748     
    566000   1.0119747      18.160797      238.76446    
    567000   1.0222597      18.97088       238.79127    
    568000   1.0039236      18.765257      238.69036    
    569000   1.0153594      19.160063      238.82374    
    570000   1.0200789      18.662004      238.78964    
    571000   0.99336483     18.945194      238.83282    
    572000   0.96175794     18.537212      238.96884    
    573000   1.0121056      18.871595      239.05925    
    574000   1.0039683      18.754996      239.09229    
    575000   0.98486849     19.399234      239.18388    
    576000   1.0160334      18.952071      239.2643     
    577000   1.0210645      18.672296      239.26024    
    578000   1.043323       18.843538      239.13021    
    579000   1.0233837      18.717624      239.31549    
    580000   1.0379213      18.564611      239.37587    
    581000   0.98839829     18.69929       239.35171    
    582000   0.99289476     18.82355       239.4981     
    583000   1.0059317      18.935946      239.52387    
    584000   0.98944196     18.366076      239.44444    
    585000   1.0224666      18.727414      239.26573    
    586000   1.0469509      18.911236      239.27114    
    587000   0.99871248     18.737376      239.07846    
    588000   0.97208729     18.656656      238.96503    
    589000   0.97036492     18.895014      239.0852     
    590000   1.0078405      19.001915      239.03041    
    591000   1.0024391      18.702542      238.94817    
    592000   0.99751146     18.601169      238.9215     
    593000   1.0274296      18.704436      239.10338    
    594000   1.0013085      18.777352      239.01962    
    595000   1.0070425      18.768425      238.87368    
    596000   1.0114034      18.624063      238.7787     
    597000   0.97132077     18.833683      238.80268    
    598000   1.0155613      18.300178      238.81884    
    599000   1.0308239      19.257783      238.76801    
    600000   1.0130317      18.506245      238.57297    
    601000   0.98089928     18.732158      238.47516    
    602000   0.97145749     18.462139      238.58281    
    603000   1.0052091      18.56818       238.47445    
    604000   0.97613104     18.634561      238.27525    
    605000   0.99575498     19.109631      238.16986    
    606000   1.0238704      18.9015        238.12079    
    607000   0.96482835     18.935931      238.09173    
    608000   1.0103399      18.877405      237.96263    
    609000   1.0125194      19.0631        237.95192    
    610000   1.017847       18.58533       237.84203    
    611000   0.99958347     18.540337      237.78592    
    612000   1.0034151      19.006496      237.7087     
    613000   0.99951624     18.559906      237.65168    
    614000   0.97105287     18.633434      237.49686    
    615000   1.0344024      19.070111      237.39312    
    616000   0.9596058      18.867304      237.5327     
    617000   1.0066626      18.984159      237.38713    
    618000   1.0378325      18.45067       237.18141    
    619000   0.97812032     18.763562      237.04596    
    620000   1.0781327      18.835697      236.88661    
    621000   0.99242541     18.513364      236.78186    
    622000   0.96172163     18.543736      236.90468    
    623000   0.99766278     18.47556       236.8136     
    624000   1.0185477      18.378509      236.664      
    625000   0.98592574     18.740339      236.54497    
    626000   1.0063803      18.515446      236.40313    
    627000   0.99857863     19.130422      236.25506    
    628000   1.0014636      18.718824      236.3132     
    629000   1.0236303      18.679232      236.35024    
    630000   1.0225533      18.909121      236.4935     
    631000   1.052155       18.686977      236.4502     
    632000   1.0398653      18.43843       236.4509     
    633000   0.98462332     18.443286      236.1995     
    634000   0.97827768     19.044909      236.07008    
    635000   1.0156026      19.067889      235.82168    
    636000   1.0367337      19.094093      235.88828    
    637000   1.0228605      19.341946      235.85696    
    638000   1.0204077      19.168697      235.93884    
    639000   1.0008601      19.014014      235.8531     
    640000   1.0134911      19.098575      235.9065     
    641000   0.99827964     18.861838      236.00456    
    642000   1.0358638      18.819344      235.95524    
    643000   0.99910068     18.51184       236.04031    
    644000   1.0207035      18.203746      235.80603    
    645000   0.99772025     18.182906      235.5333     
    646000   0.97639938     18.489395      235.5605     
    647000   0.97998712     18.679915      235.29147    
    648000   1.0012685      18.713115      235.3927     
    649000   1.0146324      19.611522      235.23289    
    650000   1.0169529      18.95657       235.11013    
    651000   1.0465895      18.69151       235.2105     
    652000   0.99933972     18.833079      235.10404    
    653000   0.98278842     18.51872       234.85912    
    654000   1.0154779      18.951386      234.67129    
    655000   0.99774052     18.36686       234.50237    
    656000   0.96268778     18.780759      234.3029     
    657000   1.0164912      18.588577      234.09038    
    658000   1.030412       18.402423      234.03435    
    659000   1.0168117      18.293274      233.74734    
    660000   0.99470789     18.313805      233.59057    
    661000   1.0178966      19.352376      233.38584    
    662000   0.9853698      19.184526      233.11344    
    663000   1.0007375      18.7194        233.05112    
    664000   1.0237361      18.816966      232.835      
    665000   1.0456137      18.85412       232.57545    
    666000   0.98922748     18.955098      232.30419    
    667000   1.0121393      18.783657      232.36766    
    668000   1.0048398      18.997726      232.33863    
    669000   0.98861203     18.679626      232.36912    
    670000   0.9876373      18.335218      232.15595    
    671000   0.95232264     18.572738      232.13744    
    672000   0.94402062     18.859108      232.12505    
    673000   0.9895721      18.465763      232.05907    
    674000   0.97676665     18.567468      231.99632    
    675000   0.97698867     18.793307      231.9057     
    676000   0.96961537     19.083977      231.78112    
    677000   1.0038842      18.713464      231.63141    
    678000   0.95187235     18.872706      231.53773    
    679000   0.96924355     18.815515      231.50472    
    680000   0.99826321     18.298659      231.43274    
    681000   0.96792318     18.612423      231.40974    
    682000   1.0169546      18.876455      231.54454    
    683000   0.99225231     18.33579       231.48232    
    684000   1.0144497      19.014963      231.22946    
    685000   0.98650087     18.746076      231.27349    
    686000   1.0047574      18.903996      231.25704    
    687000   0.99658807     18.618334      231.25642    
    688000   1.0274258      18.89909       231.36956    
    689000   0.98638602     18.654662      231.42266    
    690000   1.0068524      18.733962      231.36443    
    691000   1.0308845      18.249248      231.19171    
    692000   1.005108       18.953995      231.02685    
    693000   1.0048992      18.359444      230.94686    
    694000   0.98468097     18.850733      230.95876    
    695000   0.95092944     18.515995      230.93506    
    696000   1.0170567      18.213419      230.90184    
    697000   1.0314401      18.67467       230.7699     
    698000   0.98486823     19.048253      230.81991    
    699000   1.0113265      18.989679      230.80004    
    700000   1.0474021      18.707723      230.99032    
    701000   0.98846079     18.910303      230.85367    
    702000   0.98777656     18.699373      230.76998    
    703000   0.99864418     18.667198      230.77893    
    704000   1.0290637      18.87147       230.65344    
    705000   0.97299697     18.279175      230.45321    
    706000   0.97398959     18.763287      230.4096     
    707000   0.98824494     19.091874      230.40162    
    708000   0.97323239     19.073453      230.42274    
    709000   0.96773449     19.140194      230.43241    
    710000   0.98511037     18.591007      230.28131    
    711000   1.0275577      19.254834      230.32858    
    712000   0.9768647      18.61784       230.10192    
    713000   1.0023752      18.751347      230.15396    
    714000   0.99271216     18.247182      230.28017    
    715000   0.98635198     18.83786       230.25915    
    716000   0.99126404     18.89233       230.03667    
    717000   1.0015698      18.628307      230.04464    
    718000   0.94846058     18.790526      229.78357    
    719000   1.0072204      18.264295      229.70591    
    720000   1.0059819      18.980851      229.6951     
    721000   1.0255969      19.138269      229.65275    
    722000   0.99506821     18.29352       229.53855    
    723000   0.96969738     19.101428      229.19896    
    724000   1.0163821      18.408164      229.30781    
    725000   1.0631625      18.740695      229.15041    
    726000   0.98681611     18.81132       228.89037    
    727000   1.0203901      18.4327        228.76427    
    728000   1.0143463      18.617693      228.67583    
    729000   0.99397731     18.577712      228.69864    
    730000   1.0210471      18.798344      228.77469    
    731000   1.0283025      19.00259       228.84591    
    732000   1.0239883      19.168079      228.79799    
    733000   0.99423609     18.7956        228.52709    
    734000   1.0033495      18.64081       228.27011    
    735000   1.0011585      18.704512      228.28808    
    736000   0.9891803      18.874806      228.31962    
    737000   1.0421229      18.87793       228.38712    
    738000   1.066926       18.875127      228.33316    
    739000   0.95514076     18.527682      228.17116    
    740000   1.0397024      18.703657      227.93499    
    741000   1.0146413      18.794719      227.88473    
    742000   0.97878075     18.735805      227.69824    
    743000   1.0566325      19.195035      227.68986    
    744000   0.9902057      18.932306      227.70379    
    745000   0.98383009     18.910795      227.65837    
    746000   1.0039756      18.63256       227.53842    
    747000   0.99218477     19.028241      227.64476    
    748000   1.0080317      18.486303      227.6389     
    749000   1.0457102      18.972788      227.55748    
    750000   1.0086968      18.374686      227.32244    
    751000   1.0073338      18.768033      227.16883    
    752000   1.0117144      19.088004      227.06305    
    753000   0.98682715     18.794743      227.16265    
    754000   1.0272003      18.713122      227.27528    
    755000   1.0265047      18.192674      227.26939    
    756000   0.97266823     18.53614       227.11184    
    757000   0.99830193     19.127859      227.13492    
    758000   1.0085174      18.727012      226.95814    
    759000   0.967473       18.547537      226.87127    
    760000   0.97807337     18.675033      226.52393    
    761000   1.0643835      18.850033      226.45327    
    762000   0.98268272     18.867583      226.3939     
    763000   1.0527895      19.268022      226.24922    
    764000   1.0117737      18.760094      226.15216    
    765000   0.96805114     18.523973      226.34314    
    766000   1.0542431      18.706828      226.34296    
    767000   0.97668555     18.298169      226.28491    
    768000   0.97777841     18.635889      226.16123    
    769000   1.0053938      18.767033      226.13331    
    770000   1.0271885      18.809344      226.21569    
    771000   0.99998066     18.413461      226.12262    
    772000   1.0523277      19.321278      226.09217    
    773000   0.97208497     18.484971      225.89607    
    774000   1.0041231      18.753701      225.93932    
    775000   1.009317       18.825149      225.85518    
    776000   0.97774296     19.021357      225.71225    
    777000   1.0044187      19.01668       225.57198    
    778000   1.0078974      18.858655      225.46285    
    779000   1.04001        18.945937      225.16431    
    780000   0.98825175     18.731172      225.03583    
    781000   0.96691571     18.930953      224.79617    
    782000   1.0189368      18.602305      224.66873    
    783000   1.0163542      18.908651      224.5374     
    784000   0.97207111     18.525819      224.44985    
    785000   0.99172102     18.990285      224.4506     
    786000   1.0195345      18.800222      224.12875    
    787000   1.0318984      19.055446      223.86922    
    788000   1.0052647      18.611133      223.77794    
    789000   1.0439381      18.494925      223.93905    
    790000   1.0105036      18.53382       223.91037    
    791000   0.98336931     18.534931      223.79123    
    792000   0.99315441     18.477706      224.00787    
    793000   1.0414715      18.808061      223.88485    
    794000   1.0151213      18.935078      223.86761    
    795000   1.022934       18.794781      223.99315    
    796000   0.96290874     18.29851       224.01044    
    797000   1.0203195      18.712723      223.97484    
    798000   1.0002126      18.585223      223.98816    
    799000   0.98372844     18.256621      223.86533    
    800000   0.99532753     18.287137      223.70578    
    801000   1.0123416      18.51607       223.52431    
    802000   1.0090985      18.525457      223.56176    
    803000   0.96321933     18.83471       223.51181    
    804000   0.97679531     18.804391      223.36335    
    805000   1.0159722      18.786189      223.46409    
    806000   0.96439613     18.549253      223.29055    
    807000   0.98582228     19.311739      223.15812    
    808000   1.0158021      19.02697       223.08816    
    809000   1.0099242      19.244263      222.89052    
    810000   0.96026677     17.937552      222.597      
    811000   1.0227526      18.561729      222.59395    
    812000   0.97165494     18.857491      222.69407    
    813000   1.0070884      18.826253      222.75427    
    814000   1.0467284      19.022659      222.59902    
    815000   1.0285499      18.789073      222.63162    
    816000   0.98584427     18.396573      222.38353    
    817000   1.0000992      18.855047      222.29541    
    818000   1.0317117      18.17131       222.42426    
    819000   1.0304175      19.002566      222.35452    
    820000   1.0055871      18.626973      222.35369    
    821000   0.97166239     18.46854       222.18275    
    822000   1.0091675      18.335919      222.00833    
    823000   0.97037004     18.965368      221.98628    
    824000   1.0130009      18.66369       222.15722    
    825000   1.0023402      19.141898      222.06787    
    826000   1.013858       18.676706      221.93078    
    827000   1.0389175      18.38754       221.97671    
    828000   1.004818       18.832338      222.05683    
    829000   1.0496892      18.810079      221.95136    
    830000   1.0155194      18.646264      221.98501    
    831000   1.0363774      18.828475      221.83089    
    832000   0.99910521     18.75478       221.87145    
    833000   0.99273895     18.494921      221.46901    
    834000   0.97288542     18.806321      221.42023    
    835000   1.0089325      18.863891      221.17058    
    836000   0.9899293      18.701494      221.06504    
    837000   0.98321326     18.757289      221.08568    
    838000   0.97601688     18.348811      221.1263     
    839000   0.99686044     18.694239      221.04751    
    840000   1.0284461      18.210851      220.8857     
    841000   0.96671251     18.666712      220.5478     
    842000   0.98395978     18.879025      220.53791    
    843000   1.0124823      18.881159      220.48159    
    844000   1.0392835      18.738942      220.46156    
    845000   0.99338288     18.350046      220.62561    
    846000   0.97997333     18.81765       220.55131    
    847000   1.0157207      18.798422      220.4381     
    848000   0.97373393     18.349977      220.18549    
    849000   0.98299387     18.599741      220.19972    
    850000   0.99360418     18.63279       219.98812    
    851000   0.99050388     18.673616      219.78451    
    852000   0.99498284     18.500344      219.75434    
    853000   0.98245202     18.427869      219.61141    
    854000   1.0325668      18.476059      219.58687    
    855000   1.0173074      18.321678      219.42396    
    856000   1.014077       18.25662       219.5226     
    857000   1.0166137      18.630785      219.16285    
    858000   0.99703679     18.820785      218.95537    
    859000   0.99352607     17.82972       218.86381    
    860000   1.0421691      18.505085      218.7657     
    861000   0.99965266     18.250719      218.74052    
    862000   1.0060324      18.698457      218.77842    
    863000   1.0074274      18.595694      218.71043    
    864000   0.99112799     19.074905      218.60212    
    865000   0.96793378     18.664528      218.61793    
    866000   1.0010807      18.206602      218.70538    
    867000   1.0169312      18.35972       218.53409    
    868000   0.95641254     18.501636      218.29304    
    869000   1.0294767      18.955647      218.19496    
    870000   0.98867553     18.735022      218.43007    
    871000   0.99558375     18.903732      218.54347    
    872000   1.0168108      19.252232      218.40378    
    873000   1.0060441      18.504688      218.1036     
    874000   1.0349714      18.265848      217.94685    
    875000   0.99079583     19.070776      218.10845    
    876000   0.98369217     18.621683      217.91093    
    877000   1.007594       18.701454      217.72957    
    878000   0.98566665     18.937889      217.57031    
    879000   0.97547987     18.591691      217.53826    
    880000   0.99495554     18.805975      217.37984    
    881000   1.0212473      18.325879      217.38133    
    882000   0.99625309     18.331732      217.25022    
    883000   1.0707388      18.692335      216.9373     
    884000   1.000236       18.65563       217.00082    
    885000   0.99590439     18.198917      216.95357    
    886000   1.0145433      18.687717      217.00063    
    887000   1.0085569      18.460851      217.05578    
    888000   1.0523686      19.156109      216.89339    
    889000   0.98304744     18.434322      216.72076    
    890000   1.0078199      19.011909      216.61693    
    891000   0.97529567     18.719034      216.51894    
    892000   1.0189617      18.533548      216.32815    
    893000   0.99644097     18.849431      216.26664    
    894000   1.0736227      18.856898      216.2034     
    895000   1.0072663      18.871675      215.90476    
    896000   0.98289897     19.055015      215.86787    
    897000   0.99066424     18.855724      215.76757    
    898000   0.9950394      18.64353       215.49893    
    899000   0.94479457     18.478872      215.46177    
    900000   1.0354175      18.597317      215.34442    
    901000   1.0234442      18.587225      215.29058    
    902000   1.0166938      18.531122      215.0142     
    903000   0.95589978     18.361471      214.85854    
    904000   1.0488105      18.76272       214.7037     
    905000   0.98778432     18.781266      214.50145    
    906000   1.022249       18.79858       214.62862    
    907000   1.0269617      18.525384      214.68256    
    908000   0.99449989     18.417356      214.60405    
    909000   1.0109825      18.735321      214.35873    
    910000   0.96103691     18.324077      214.34034    
    911000   1.0013113      18.833218      214.45687    
    912000   1.0447704      18.849777      214.21178    
    913000   1.0495438      19.123966      213.93768    
    914000   1.0289755      18.733089      213.90196    
    915000   0.98028072     18.438055      213.7946     
    916000   1.0204667      18.453993      213.52364    
    917000   1.0167739      17.96998       213.67877    
    918000   0.95686107     18.433429      213.581      
    919000   1.0014885      18.660773      213.18778    
    920000   0.99402423     18.514704      213.03797    
    921000   0.99892132     18.529564      213.00644    
    922000   0.99323881     18.622523      213.09281    
    923000   0.98986382     18.687417      213.09097    
    924000   0.9968452      18.983154      212.77344    
    925000   1.0070865      18.493777      212.77987    
    926000   0.98372258     18.68408       212.76123    
    927000   1.0269157      18.790342      212.8711     
    928000   0.99598026     18.350224      212.80774    
    929000   0.97366337     18.720786      212.62019    
    930000   1.0283669      18.447358      212.53725    
    931000   0.97753809     18.775941      212.59374    
    932000   1.0025063      18.549535      212.54812    
    933000   0.97363374     18.117865      212.71088    
    934000   1.0049568      18.427643      212.81719    
    935000   0.99860614     18.460406      212.91578    
    936000   0.98768456     18.752364      212.72292    
    937000   1.0099         18.655749      212.65002    
    938000   0.98443933     18.386598      212.62687    
    939000   1.0267665      18.595817      212.41859    
    940000   1.0133738      18.98145       212.19983    
    941000   0.98868744     18.504314      212.32429    
    942000   1.0283348      19.250902      212.16494    
    943000   1.0141723      18.667626      211.99839    
    944000   1.003025       18.674852      211.67516    
    945000   1.0049037      18.992397      211.49653    
    946000   0.99374712     19.159916      211.3161     
    947000   0.99843793     18.634453      210.98599    
    948000   1.0052429      18.366476      211.25869    
    949000   1.0114121      18.614557      211.04626    
    950000   1.0241989      19.122738      210.84724    
    951000   0.99106447     18.999256      210.75184    
    952000   1.0142065      18.445215      210.48088    
    953000   1.0385477      19.117931      210.55103    
    954000   1.0041723      18.42941       210.53852    
    955000   1.004024       18.679998      210.42356    
    956000   1.0099525      18.613488      210.27687    
    957000   0.98573957     18.686151      210.04307    
    958000   0.96050483     18.362681      209.95294    
    959000   0.99017422     18.735021      209.82774    
    960000   1.0456739      18.663677      209.61317    
    961000   0.9524436      18.274177      209.45602    
    962000   0.96875075     18.413686      209.42972    
    963000   0.98270814     19.228399      209.16537    
    964000   1.0195918      19.036396      209.03729    
    965000   0.98242832     18.439622      208.87288    
    966000   0.95568582     18.390616      209.00297    
    967000   1.0077636      19.469613      209.01434    
    968000   0.98159061     18.778151      208.96431    
    969000   1.0351882      18.75738       208.69846    
    970000   1.0005551      18.336064      208.60206    
    971000   0.97715139     18.703907      208.45515    
    972000   0.99786771     18.711943      208.31952    
    973000   1.0085975      18.247013      208.35033    
    974000   1.0164324      18.823532      208.37571    
    975000   0.99742169     18.361666      208.43768    
    976000   1.0139871      18.417333      208.20696    
    977000   1.016732       18.611644      208.36538    
    978000   1.0138166      18.534655      208.24404    
    979000   0.96245882     18.126657      208.27907    
    980000   1.0187792      18.681327      207.89482    
    981000   0.96743203     18.204147      207.79134    
    982000   1.038115       18.391098      207.7174     
    983000   0.981071       18.421667      207.65526    
    984000   1.0110095      18.554492      207.59152    
    985000   0.99977801     18.369517      207.57733    
    986000   1.0553618      19.05958       207.57437    
    987000   1.0012196      18.789554      207.4843     
    988000   1.0304794      19.360819      207.3324     
    989000   0.99097685     18.576161      207.26449    
    990000   1.0190113      18.589536      207.13443    
    991000   1.0119693      18.598748      206.85751    
    992000   0.97755991     18.521539      206.62232    
    993000   0.94731781     18.522268      206.60099    
    994000   0.9687401      18.263739      206.55894    
    995000   1.0161119      18.556548      206.48686    
    996000   0.99920962     18.497372      206.37934    
    997000   1.0245125      18.676612      206.26068    
    998000   0.99172078     18.445354      206.09595    
    999000   0.94771495     18.467127      206.1209     
   1000000   0.98117797     18.452491      206.09454    
   1001000   0.98839283     18.316641      206.01518    
   1002000   1.0176886      18.595527      205.9845     
   1003000   1.0039178      18.342263      206.20098    
   1004000   1.0088178      18.68304       206.18044    
   1005000   1.0062536      18.727367      206.23592    
   1006000   1.0132877      18.955172      206.05707    
   1007000   0.99652153     18.60683       205.99989    
   1008000   0.9590047      18.408621      205.94733    
   1009000   0.95723703     18.321041      206.00066    
   1010000   0.97416424     18.661912      206.02608    
   1011000   0.97727056     18.232264      206.10018    
   1012000   1.0282791      18.729871      205.9001     
   1013000   1.0084824      18.824047      205.795      
   1014000   1.0113139      18.185037      205.66134    
   1015000   1.0161917      18.686258      205.63047    
   1016000   1.0537654      18.829128      205.60298    
   1017000   0.98882246     18.670338      205.59696    
   1018000   1.0006269      17.997251      205.34817    
   1019000   1.0344852      18.319892      205.05824    
   1020000   1.00027        18.448659      204.971      
   1021000   1.0139177      18.735699      204.95544    
   1022000   1.0152905      18.296405      204.90258    
   1023000   1.0210093      18.604825      204.68597    
   1024000   0.97330403     18.700393      204.53984    
   1025000   1.025453       18.312835      204.46887    
   1026000   1.0138079      18.401361      204.34085    
   1027000   1.029335       18.757098      204.26516    
   1028000   0.95252009     18.853303      204.27645    
   1029000   1.0091544      18.876061      204.081      
   1030000   1.0425252      18.685482      204.35695    
   1031000   0.99025932     18.566122      204.36526    
   1032000   0.95360915     18.581286      204.43392    
   1033000   0.99076548     18.667193      204.40956    
   1034000   0.99885274     18.45567       204.17485    
   1035000   0.96327502     18.850851      203.9831     
   1036000   0.99329795     18.362349      203.94544    
   1037000   0.98532615     18.439504      204.16       
   1038000   1.0174239      19.009155      204.03688    
   1039000   0.9738135      18.66396       203.87834    
   1040000   1.0181546      18.531875      204.06425    
   1041000   1.0339463      19.078762      204.12338    
   1042000   0.97832006     18.589212      204.31057    
   1043000   1.0312704      18.471376      204.11273    
   1044000   0.98749724     18.710684      204.02553    
   1045000   0.99496204     18.84692       204.13617    
   1046000   1.0198599      18.456138      204.0989     
   1047000   1.0011639      18.426504      204.14545    
   1048000   1.0022142      18.232385      204.30774    
   1049000   0.96924383     18.486161      204.15291    
   1050000   0.94595102     19.421103      203.98688    
   1051000   1.006105       18.134169      203.84507    
   1052000   1.0219235      19.033512      203.63885    
   1053000   1.0209192      18.797765      203.48557    
   1054000   1.0022315      18.70023       203.4367     
   1055000   1.0074702      18.537306      203.51392    
   1056000   1.0301472      18.906027      203.36421    
   1057000   0.99438115     18.593182      203.3041     
   1058000   1.0450081      18.940718      203.27852    
   1059000   1.0081799      19.42821       203.18179    
   1060000   0.96966331     18.238045      203.04692    
   1061000   1.0332188      19.272464      203.06645    
   1062000   1.0357121      18.964996      202.84229    
   1063000   1.0269186      18.767497      202.88895    
   1064000   1.0038278      18.624415      202.77311    
   1065000   1.0133679      19.163398      202.70412    
   1066000   0.99977509     19.251855      202.70596    
   1067000   0.96024926     19.01683       202.57185    
   1068000   0.98031114     19.050545      202.45827    
   1069000   0.95778264     18.357141      202.47486    
   1070000   0.99589524     18.927866      202.32193    
   1071000   1.0104933      18.625405      202.09822    
   1072000   1.0032457      18.621169      202.25342    
   1073000   0.9997557      19.23376       201.92443    
   1074000   0.97653933     18.822078      201.75188    
   1075000   1.0217025      18.409684      201.61897    
   1076000   1.0320369      18.281871      201.38667    
   1077000   0.97241261     18.78922       201.16811    
   1078000   0.99790983     18.791771      201.28141    
   1079000   1.0070747      18.972893      201.04028    
   1080000   0.96471462     18.550627      200.85424    
   1081000   1.0136453      18.354338      200.79177    
   1082000   0.98458927     18.86695       200.69848    
   1083000   1.0368962      18.527193      200.6464     
   1084000   0.98164101     18.606089      200.82348    
   1085000   0.97613851     18.336431      200.66194    
   1086000   1.005972       18.294621      200.72324    
   1087000   1.0216         19.157394      200.47481    
   1088000   0.97613021     18.367412      200.57976    
   1089000   0.99927109     18.473431      200.57372    
   1090000   0.9650911      18.712731      200.65969    
   1091000   1.0125262      18.370887      200.46872    
   1092000   1.0400045      18.621033      200.28544    
   1093000   0.99794649     18.601344      200.29357    
   1094000   1.0146747      18.209343      200.2479     
   1095000   0.98831872     18.95212       200.27184    
   1096000   0.95928786     18.413834      200.22768    
   1097000   1.0050225      18.856495      200.00787    
   1098000   1.0030034      18.75742       199.8995     
   1099000   1.0105943      19.091831      199.80438    
   1100000   1.0169798      18.374185      199.76068    
   1101000   0.94867047     18.450073      199.71575    
   1102000   0.97733009     18.997527      199.73426    
   1103000   1.0413472      18.720786      199.77711    
   1104000   0.99064616     18.618624      199.42081    
   1105000   0.97901768     18.696006      199.37654    
   1106000   0.97913648     18.405217      199.46836    
   1107000   0.9483592      18.694589      199.29823    
   1108000   1.0257458      18.44267       199.12597    
   1109000   1.0048814      18.348752      199.16794    
   1110000   0.99447928     18.340056      199.22707    
   1111000   1.0141989      18.634258      199.126      
   1112000   0.99383205     18.377531      198.74884    
   1113000   0.99344782     18.316428      198.43537    
   1114000   1.0106763      18.208075      198.43516    
   1115000   0.98681733     18.373609      198.26858    
   1116000   0.99264944     18.643086      198.26686    
   1117000   0.97754002     18.358478      198.2151     
   1118000   1.0080814      18.418735      198.07713    
   1119000   1.0068573      18.462793      197.80579    
   1120000   1.0122172      18.830134      197.90669    
   1121000   1.0197727      18.473105      197.74743    
   1122000   1.0245852      19.107898      197.80966    
   1123000   0.99072278     18.536796      197.6312     
   1124000   0.97080133     18.397547      197.78538    
   1125000   0.98450502     18.366723      197.67813    
   1126000   1.0098157      18.746547      197.60412    
   1127000   0.99741918     18.856067      197.53049    
   1128000   0.99652142     18.545465      197.63556    
   1129000   0.98836556     18.672333      197.49787    
   1130000   0.99127308     18.62185       197.2863     
   1131000   1.0304269      18.80147       196.99572    
   1132000   1.0454087      19.233635      196.9774     
   1133000   1.0542201      18.70271       196.85347    
   1134000   0.99315412     18.101924      196.85604    
   1135000   0.99138342     18.368855      196.81816    
   1136000   1.0099805      18.537953      196.85022    
   1137000   1.0125716      18.258313      197.05555    
   1138000   0.99000966     18.320558      196.91583    
   1139000   0.9936949      18.69283       196.74694    
   1140000   1.0486785      18.96408       196.83012    
   1141000   1.0225403      18.549268      196.84824    
   1142000   1.0082518      18.249552      196.86656    
   1143000   0.9975229      18.701054      196.82883    
   1144000   1.0147822      18.838151      196.53785    
   1145000   1.0042495      18.976064      196.47528    
   1146000   0.95686245     18.69519       196.46474    
   1147000   1.0312887      18.754264      196.46542    
   1148000   1.0230721      19.105121      196.48645    
   1149000   1.0066574      18.176893      196.45331    
   1150000   0.9959916      18.449892      196.42482    
   1151000   1.0043179      18.561747      196.42593    
   1152000   0.99359528     18.508699      196.45321    
   1153000   0.9633626      18.3732        196.35204    
   1154000   1.039858       18.46612       196.17247    
   1155000   0.97731617     18.624735      195.94631    
   1156000   1.0110504      18.448706      195.73362    
   1157000   1.0462614      18.327348      195.73196    
   1158000   0.98498925     18.486863      195.68489    
   1159000   1.008339       19.232043      195.54288    
   1160000   0.97535214     18.37001       195.27741    
   1161000   1.0306313      18.789524      195.23781    
   1162000   1.0427986      18.606907      194.98512    
   1163000   1.0268538      18.414312      194.90362    
   1164000   0.99825396     18.918197      194.72427    
   1165000   1.0290519      18.570767      194.7259     
   1166000   1.0228488      18.171758      194.65616    
   1167000   1.0365624      18.193556      194.69706    
   1168000   1.0041858      18.664472      194.75643    
   1169000   1.0281515      18.944172      194.77219    
   1170000   0.98743576     18.836487      194.71484    
   1171000   0.97429446     18.705524      194.65533    
   1172000   0.97011724     18.757212      194.57881    
   1173000   1.0074351      18.12779       194.50019    
   1174000   1.0244271      18.444489      194.51068    
   1175000   1.0033425      18.691077      194.34816    
   1176000   1.0189538      18.397314      194.23551    
   1177000   1.0024112      18.861078      194.03519    
   1178000   0.99882391     19.073155      193.90517    
   1179000   0.99807602     18.631705      193.88294    
   1180000   0.99944182     18.870094      193.82439    
   1181000   1.0175142      18.463971      193.73242    
   1182000   1.0050355      18.436048      193.45942    
   1183000   1.0351813      18.403591      193.53362    
   1184000   1.023883       18.640608      193.38229    
   1185000   0.98226631     18.06708       193.27588    
   1186000   0.95560942     18.383754      193.23401    
   1187000   1.0407381      18.871255      193.10677    
   1188000   0.98333878     18.422987      193.00606    
   1189000   0.99141733     18.568784      193.07053    
   1190000   1.0175003      18.15578       192.97604    
   1191000   1.0281305      19.004701      193.06854    
   1192000   0.99268197     18.14709       192.83539    
   1193000   1.0344294      18.866966      192.71225    
   1194000   1.0313884      18.510964      192.84151    
   1195000   1.0177532      18.472648      192.9128     
   1196000   0.9960228      18.416221      192.61255    
   1197000   1.0097306      18.625882      192.62309    
   1198000   1.0100721      18.935683      192.61975    
   1199000   1.0172163      18.981865      192.5571     
   1200000   1.0230255      18.385315      192.28999    
   1201000   1.0033609      18.914614      192.18694    
   1202000   0.99968062     18.332691      192.13047    
   1203000   1.0253799      18.65083       191.99665    
   1204000   1.0222617      18.456982      191.80224    
   1205000   1.028772       18.019054      191.89073    
   1206000   0.98388789     18.041625      191.94488    
   1207000   1.0092774      18.497456      192.03146    
   1208000   0.96635426     18.319007      191.90022    
   1209000   0.99748676     18.256772      191.80405    
   1210000   1.0203001      18.885565      191.68893    
   1211000   1.0273274      18.713486      191.48752    
   1212000   0.99841422     18.953081      191.0902     
   1213000   1.0104234      18.133189      190.89338    
   1214000   0.97637455     18.600125      190.69483    
   1215000   1.0082609      18.52237       190.59664    
   1216000   1.0036408      18.741156      190.39822    
   1217000   0.98160763     18.538108      190.20606    
   1218000   1.0427523      18.939011      190.1878     
   1219000   0.96399073     18.066877      190.07421    
   1220000   1.0466934      18.375384      190.14694    
   1221000   1.0174903      18.229149      190.16925    
   1222000   1.0284113      18.18265       190.13297    
   1223000   0.99130165     18.293656      190.07376    
   1224000   1.025573       18.659088      190.02041    
   1225000   1.0269561      18.453433      189.86935    
   1226000   0.96684826     18.597121      189.86955    
   1227000   0.97360203     18.370539      189.75782    
   1228000   1.0025008      18.756377      189.55681    
   1229000   1.0130358      18.481497      189.34998    
   1230000   0.98901979     17.786984      189.44821    
   1231000   1.004962       18.788739      189.35437    
   1232000   0.97092764     18.585344      189.25369    
   1233000   1.0179434      18.577796      189.11076    
   1234000   0.96753886     18.084952      189.13759    
   1235000   0.96987758     17.993348      189.10742    
   1236000   1.006813       18.32879       189.272      
   1237000   0.99525539     18.6611        189.06537    
   1238000   0.98281759     18.268046      189.00991    
   1239000   0.99855398     18.413883      189.07713    
   1240000   0.96880065     18.913395      188.95979    
   1241000   1.0062204      17.994951      188.64002    
   1242000   1.0218852      18.424045      188.56175    
   1243000   0.98842786     18.928485      188.63718    
   1244000   1.0171         18.511409      188.65438    
   1245000   0.9839023      18.184038      188.61786    
   1246000   1.0066743      18.43241       188.54135    
   1247000   1.0374035      18.695851      188.3828     
   1248000   0.99445793     18.513592      188.20769    
   1249000   0.98215623     18.591675      188.28775    
   1250000   1.0071895      18.150194      188.47147    
   1251000   1.0348492      18.853793      188.5085     
   1252000   1.0120876      18.790711      188.41122    
   1253000   0.98300524     18.472155      188.42339    
   1254000   0.99736506     18.400379      188.34421    
   1255000   1.0065282      18.397165      188.29114    
   1256000   1.019872       18.485539      188.36451    
   1257000   0.98082426     17.877707      188.22513    
   1258000   1.0400468      18.503948      188.11359    
   1259000   0.98342047     18.260873      188.22741    
   1260000   1.0101109      18.826083      188.17245    
   1261000   0.9853264      18.707975      188.04887    
   1262000   1.0018426      18.120867      188.02235    
   1263000   0.9821375      18.183921      187.74727    
   1264000   1.0005814      18.508981      187.56686    
[...]
   4016000   0.98107655     16.341722      28.337499    
   4017000   1.0154822      17.267307      28.317647    
   4018000   0.98504367     17.058899      28.342125    
   4019000   0.94696055     16.864813      28.250023    
   4020000   1.0339171      17.013209      28.398992    
   4021000   0.99881743     17.432007      28.399843    
   4022000   0.98811845     17.64512       28.544657    
   4023000   1.0041495      17.289286      28.463239    
   4024000   0.95552427     16.992936      28.505325    
   4025000   1.0259647      17.261472      28.526286    
   4026000   1.0010637      17.68475       28.506067    
   4027000   1.0018409      17.192303      28.635061    
   4028000   1.0157478      17.105426      28.372813    
   4029000   1.0032391      16.743537      28.396908    
   4030000   1.0130283      17.574275      28.205064    
   4031000   1.0031869      16.889505      28.03694     
   4032000   0.99070715     17.010817      27.980243    
   4033000   0.99803008     17.553266      27.944431    
   4034000   1.0134386      17.281343      27.752858    
   4035000   0.97541442     17.379974      27.709859    
   4036000   1.0771362      17.403787      27.756657    
   4037000   0.98771276     17.359546      27.679411    
   4038000   0.99654675     17.513074      27.446973    
   4039000   1.0094075      17.029481      27.515279    
   4040000   1.0168185      17.356462      27.366423    
   4041000   1.0068834      17.14027       27.265394    
   4042000   1.0002802      17.303978      27.174537    
   4043000   0.98609148     16.856719      27.167133    
   4044000   1.0025401      16.48252       26.977704    
   4045000   0.98280314     16.479927      26.960801    
   4046000   0.96806203     17.041262      27.045335    
   4047000   1.031092       16.965449      27.093568    
   4048000   1.0104706      17.083622      27.017549    
   4049000   0.97620805     17.208419      27.068902    
   4050000   0.97917904     16.638387      26.96296     
   4051000   1.0039078      17.088604      26.800786    
   4052000   0.97459512     17.163261      26.817994    
   4053000   0.98479255     17.809362      26.640414    
   4054000   1.0433846      17.179101      26.738135    
   4055000   1.0171626      16.981904      26.583066    
   4056000   0.97408303     16.91589       26.574275    
   4057000   0.98867222     17.345364      26.640185    
   4058000   1.0421964      17.579672      26.541369    
   4059000   1.0565197      17.897066      26.204539    
   4060000   0.99473596     16.811855      25.997011    
   4061000   1.0083885      17.057551      25.83093     
   4062000   1.046648       17.285196      25.79475     
   4063000   0.99909137     17.845716      25.735865    
   4064000   0.95110163     17.208768      25.692933    
   4065000   1.0334241      17.158672      25.814303    
   4066000   0.9811957      17.472435      25.586869    
   4067000   0.98483129     17.237519      25.306598    
   4068000   1.0071681      17.419373      25.338511    
   4069000   1.0030762      16.906198      25.390755    
   4070000   0.99226776     16.756034      25.375503    
   4071000   0.99472561     16.642808      25.322539    
   4072000   1.010634       17.347927      25.044048    
   4073000   1.0016144      17.666613      25.01963     
   4074000   0.98501836     16.856296      25.403657    
   4075000   0.99910838     17.035261      25.380058    
   4076000   0.95008161     16.787044      25.586644    
   4077000   1.0058396      17.403951      25.337423    
   4078000   0.96961697     16.847067      25.248123    
   4079000   1.0720597      17.170259      25.406099    
   4080000   0.96905489     17.498271      25.307675    
   4081000   0.99253047     17.658159      25.280646    
   4082000   0.991174       17.015349      25.08829     
   4083000   0.99431907     16.882566      25.05389     
   4084000   0.98250209     17.466442      24.906651    
   4085000   1.0143617      17.020364      24.64686     
   4086000   1.0243037      17.523181      24.615763    
   4087000   0.98743495     16.851635      24.689608    
   4088000   0.98373143     17.064091      24.725153    
   4089000   1.0249805      17.302969      24.597983    
   4090000   0.99087068     17.171944      24.398314    
   4091000   0.98495122     16.817783      24.52632     
   4092000   0.98019008     17.130721      24.528472    
   4093000   0.99083473     17.012825      24.435047    
   4094000   0.96042281     16.78876       24.446557    
   4095000   1.008535       17.260392      24.416353    
   4096000   0.96049576     17.293191      24.436381    
   4097000   1.0040684      17.138639      24.199436    
   4098000   1.0271089      17.278046      24.096576    
   4099000   0.96219489     17.140825      24.078484    
   4100000   0.98762748     17.45026       24.052393    
   4101000   0.9776887      16.8122        23.901633    
   4102000   1.0083399      17.375728      23.80613     
   4103000   1.0376429      17.261543      23.81699     
   4104000   0.98112199     16.882245      23.767992    
   4105000   0.98304013     17.337517      23.643496    
   4106000   0.98366415     17.037007      23.475532    
   4107000   0.98873463     17.156853      23.152235    
   4108000   1.0386192      16.981217      22.860559    
   4109000   1.0054213      16.832643      22.86659     
   4110000   0.98688092     16.86033       22.67967     
   4111000   1.0216717      16.897114      22.507737    
   4112000   1.0030849      17.159436      22.38748     
   4113000   1.0021778      17.113537      22.347619    
   4114000   1.0234166      17.123636      22.364711    
   4115000   1.0094002      17.524229      22.36681     
   4116000   0.97731444     17.47219       22.280912    
   4117000   1.0173595      17.020732      22.264206    
   4118000   1.0122664      17.288628      22.04344     
   4119000   1.0191868      16.9093        21.707075    
   4120000   1.014304       17.132361      21.903049    
   4121000   1.0146041      17.556234      21.701409    
   4122000   0.98461455     17.018543      21.546705    
   4123000   0.97451648     16.910254      21.599506    
   4124000   0.99295745     16.973595      21.622823    
   4125000   1.0079287      17.341184      21.638977    
   4126000   1.0248612      16.680539      21.465035    
   4127000   1.0745949      17.395587      21.290901    
   4128000   0.99557787     16.857396      21.144123    
   4129000   0.98354794     17.394448      20.903618    
   4130000   1.0074331      17.793129      20.942744    
   4131000   0.95434698     16.91686       21.069142    
   4132000   1.0247047      17.16908       20.842242    
   4133000   0.96684067     16.946232      20.819767    
   4134000   1.0361809      17.056913      20.584227    
   4135000   0.99097823     16.912715      20.451967    
   4136000   0.96539522     16.61094       20.406896    
   4137000   0.98511557     16.894791      20.577242    
   4138000   1.00445        17.217996      20.662858    
   4139000   0.99546323     17.14783       20.58392     
   4140000   0.96951256     17.175832      20.54712     
   4141000   0.99300908     16.706729      20.478542    
   4142000   0.96886625     16.516209      20.578067    
   4143000   0.97235346     17.062668      20.556562    
   4144000   1.0017517      17.390922      20.219525    
   4145000   0.98444651     16.735133      20.069977    
   4146000   1.0310971      17.43566       20.070587    
   4147000   0.97473959     16.963292      19.916718    
   4148000   1.0288185      17.401134      19.819666    
   4149000   1.0035587      17.022336      19.657409    
   4150000   1.0029437      17.434874      19.455031    
   4151000   1.01609        16.998832      19.338631    
   4152000   0.98477126     17.25311       19.072572    
   4153000   1.023197       17.382421      18.946224    
   4154000   1.0132175      16.978078      18.974401    
   4155000   1.0410953      16.91385       18.921123    
   4156000   1.0260851      17.41941       18.70737     
   4157000   1.0102623      17.323457      18.534695    
   4158000   1.0237464      17.081998      18.494718    
   4159000   0.98993678     16.928223      18.442957    
   4160000   0.99526674     17.716371      18.637385    
   4161000   0.99468008     17.192905      18.546598    
   4162000   1.0295988      16.562079      18.486417    
   4163000   0.98776271     16.80954       18.458458    
   4164000   0.99993834     16.732992      18.618389    
   4165000   0.98756843     17.41885       18.824665    
   4166000   1.0307851      17.618501      18.563175    
   4167000   0.97835217     16.999353      18.533026    
   4168000   1.0128129      17.149347      18.580709    
   4169000   1.0004352      16.823935      18.54813     
   4170000   1.0067635      17.067988      18.587702    
   4171000   1.0276707      16.999658      18.69214     
   4172000   0.96903645     17.329129      18.556319    
   4173000   1.0104757      17.038382      18.675966    
   4174000   0.98166249     17.247248      18.648952    
   4175000   1.0362009      17.24561       18.724693    
   4176000   1.0111655      17.085113      18.555674    
   4177000   0.9728307      17.082836      18.387168    
   4178000   0.94837037     16.890239      18.223941    
   4179000   1.0286754      17.299532      18.258236    
   4180000   0.99307477     17.025875      18.210046    
   4181000   0.97548012     17.034696      18.080309    
   4182000   0.93763346     16.840157      18.143194    
   4183000   1.0100114      17.086623      17.974023    
   4184000   0.99923442     17.000425      17.756631    
   4185000   1.0010169      17.259116      17.60274     
   4186000   1.0366658      16.971831      17.557512    
   4187000   1.0110659      17.20371       17.301334    
   4188000   1.0606358      17.43272       17.262703    
   4189000   0.97000896     16.905968      16.983658    
   4190000   1.0239042      17.408101      17.006687    
   4191000   1.0125526      17.201128      17.048271    
   4192000   0.97535279     17.359096      16.964502    
   4193000   0.96079258     17.104688      16.944659    
   4194000   0.97399497     17.278896      16.866056    
   4195000   0.98799479     16.941005      16.76911     
   4196000   1.0439947      17.318504      16.72201     
   4197000   0.99891209     17.012706      16.631805    
   4198000   1.0168767      17.154094      16.474415    
   4199000   0.94503655     17.260891      16.442137    
   4200000   0.95183929     16.816659      16.420359    
   4201000   1.0232493      16.955619      16.064455    
   4202000   1.0550892      16.946614      15.839113    
   4203000   0.96590714     17.068132      15.781258    
   4204000   0.99020618     17.448645      15.702944    
   4205000   0.97034819     16.435541      15.747271    
   4206000   1.0305675      17.227403      15.78383     
   4207000   0.97896329     16.560122      15.555062    
   4208000   0.98931718     16.876554      15.472465    
   4209000   1.0158471      16.550242      15.203623    
   4210000   1.0116411      17.134394      15.098539    
   4211000   0.99258473     17.062037      15.076582    
   4212000   1.0103169      17.011797      14.800337    
   4213000   1.0350037      17.048321      14.578403    
   4214000   0.97055223     17.423784      14.313469    
   4215000   0.97459019     17.031354      14.301754    
   4216000   0.99762478     16.594395      14.310213    
   4217000   1.0066628      17.060102      14.302714    
   4218000   0.98809343     16.533056      14.262114    
   4219000   1.0160095      17.691189      14.195468    
   4220000   1.0039041      16.965497      14.19929     
   4221000   0.98648914     16.879841      14.007485    
   4222000   1.0026752      17.134856      13.962693    
   4223000   1.0105066      16.934116      14.099078    
   4224000   1.011373       17.046419      14.11327     
   4225000   1.0332027      16.649169      14.093178    
   4226000   0.98648643     16.835619      13.947063    
   4227000   0.98230336     17.140161      14.038242    
   4228000   1.0213023      16.902884      14.167769    
   4229000   1.0164754      16.998102      14.082518    
   4230000   1.0127371      16.968701      13.904096    
   4231000   1.0271585      17.463793      13.992438    
   4232000   1.0242414      17.287471      13.890431    
   4233000   1.0220724      16.683116      13.848934    
   4234000   1.0275507      16.964115      13.802271    
   4235000   1.0098139      16.957705      13.581536    
   4236000   1.0152523      17.258681      13.362901    
   4237000   0.98952257     16.967674      13.14643     
   4238000   1.0526052      16.960862      13.110267    
   4239000   1.0082377      17.412322      12.812076    
   4240000   1.0270697      16.470815      12.816369    
   4241000   0.97215853     16.914536      12.662208    
   4242000   0.94881839     16.345341      12.556023    
   4243000   1.0358731      17.255324      12.379778    
   4244000   0.9685971      17.57477       12.161879    
   4245000   1.0236189      17.37239       12.152583    
   4246000   0.9820435      17.340427      12.151812    
   4247000   1.0094973      16.452478      12.250897    
   4248000   0.96649795     17.003849      12.160091    
   4249000   0.99713919     17.362731      12.095203    
   4250000   1.0388742      16.688181      12.31115     
   4251000   1.0081871      16.672022      12.199487    
   4252000   1.0077643      17.279858      12.077632    
   4253000   0.97002152     17.049242      12.00249     
   4254000   1.0105982      16.978835      12.166134    
   4255000   0.98809288     17.244633      12.117504    
   4256000   0.99376844     16.640925      12.096698    
   4257000   0.96910434     16.823532      12.158456    
   4258000   0.99490065     17.356606      12.201586    
   4259000   1.0315773      16.9299        12.14577     
   4260000   1.0065228      17.098861      11.992026    
   4261000   1.0166399      17.524704      11.93071     
   4262000   1.0110283      16.720571      11.913577    
   4263000   1.0284829      17.451275      11.79118     
   4264000   1.0380618      17.409023      11.766146    
   4265000   1.0001725      17.037947      11.640644    
   4266000   1.004814       16.949135      11.563144    
   4267000   0.98992462     16.738637      11.57286     
   4268000   1.0283672      16.688308      11.353833    
   4269000   0.99262146     17.017579      11.278559    
   4270000   1.0167521      16.845709      11.24858     
   4271000   0.9983301      17.324498      11.140928    
   4272000   1.0273128      16.883439      10.988152    
   4273000   0.96564028     16.977182      10.927803    
   4274000   0.99118295     16.454474      10.761719    
   4275000   1.032772       16.752897      10.633041    
   4276000   0.98519276     17.41402       10.694293    
   4277000   1.025397       17.416238      10.441559    
   4278000   1.0017621      16.879189      10.264752    
   4279000   1.008863       17.123137      10.090407    
   4280000   0.97433361     17.407695      9.9506465    
   4281000   1.0103137      17.403565      9.9465416    
   4282000   1.0036275      16.908279      9.9508768    
   4283000   0.95291932     17.407084      9.7719809    
   4284000   1.0012536      16.933723      9.8283355    
   4285000   0.99801245     17.311666      9.8815072    
   4286000   0.99047424     16.877248      9.7260337    
   4287000   1.0139662      16.868404      9.7449134    
   4288000   0.94154719     16.165917      9.5736159    
   4289000   1.0020249      17.317305      9.3389058    
   4290000   1.0248752      17.02105       9.3697017    
   4291000   0.96932798     16.356081      9.5186429    
   4292000   0.94650389     17.248241      9.4829908    
   4293000   1.0236942      16.910889      9.6471264    
   4294000   1.0007989      17.221881      9.4763995    
   4295000   1.0103562      16.966194      9.3849501    
   4296000   1.0199136      17.019536      9.437424     
   4297000   1.0255737      16.874028      9.4817953    
   4298000   0.98199686     16.732047      9.448411     
   4299000   0.95214844     16.63907       9.4769012    
   4300000   1.0000017      17.215377      9.4633255    
   4301000   1.0353863      17.483513      9.3998328    
   4302000   1.0137468      17.324998      9.293048     
   4303000   1.0016247      17.020172      9.3920641    
   4304000   1.071242       17.698584      9.5061515    
   4305000   1.0070301      18.030945      9.4443884    
   4306000   0.98266171     16.767685      9.4164669    
   4307000   0.99399706     17.198909      9.4220469    
   4308000   1.0165038      17.368496      9.3962103    
   4309000   1.0061992      16.79491       9.3161028    
   4310000   1.0225034      17.279493      9.1181074    
   4311000   1.0007156      16.59911       9.0273662    
   4312000   1.0147819      17.026423      8.8727755    
   4313000   0.97837952     16.839681      8.8697004    
   4314000   1.0015995      17.181946      8.9373424    
   4315000   1.0247813      16.897685      8.9887758    
   4316000   0.97808282     17.000265      8.9286671    
   4317000   0.98520499     16.826379      8.9705697    
   4318000   1.0167093      16.889468      9.0277681    
   4319000   1.0087381      16.630756      9.0461127    
   4320000   1.0270239      17.137959      8.9188079    
   4321000   1.0423352      16.837189      8.9597041    
   4322000   1.0111591      16.914483      8.9216066    
   4323000   0.95700902     16.651399      8.8885287    
   4324000   0.97364192     16.755052      8.655548     
   4325000   0.99502698     17.040017      8.6705254    
   4326000   0.97517405     16.890405      8.6623234    
   4327000   0.99971302     16.595726      8.5612523    
   4328000   1.0027999      17.058995      8.5196654    
   4329000   1.0152887      16.91742       8.3530872    
   4330000   1.0164371      17.195406      8.1841857    
   4331000   0.97787118     16.881574      8.0567987    
   4332000   1.0044828      16.950956      8.0013777    
   4333000   1.0245075      17.641136      7.9301997    
   4334000   1.0000307      17.171333      7.7484402    
   4335000   1.0343837      16.505739      7.6328727    
   4336000   0.95175158     16.937388      7.561767     
   4337000   0.99328908     17.450307      7.4446267    
   4338000   1.0253323      16.865241      7.1358249    
Fix halt condition for fix-id 3 met on step 4339000 with value 6.85254332583461 (src/fix_halt.cpp:237)
   4339000   0.98386151     16.875605      6.8525433    
Loop time of 8042.71 on 2 procs for 4239000 steps with 1200 atoms

Performance: 455380.837 tau/day, 527.061 timesteps/s
125.0% CPU use with 1 MPI tasks x 2 OpenMP threads

MPI task timing breakdown:
Section |  min time  |  avg time  |  max time  |%varavg| %total
---------------------------------------------------------------
Pair    | 1528.8     | 1528.8     | 1528.8     |   0.0 | 19.01
Bond    | 122.89     | 122.89     | 122.89     |   0.0 |  1.53
Neigh   | 6101.4     | 6101.4     | 6101.4     |   0.0 | 75.86
Comm    | 2.0138     | 2.0138     | 2.0138     |   0.0 |  0.03
Output  | 11.944     | 11.944     | 11.944     |   0.0 |  0.15
Modify  | 254.29     | 254.29     | 254.29     |   0.0 |  3.16
Other   |            | 21.45      |            |       |  0.27

Nlocal:           1200 ave        1200 max        1200 min
Histogram: 1 0 0 0 0 0 0 0 0 0
Nghost:              0 ave           0 max           0 min
Histogram: 1 0 0 0 0 0 0 0 0 0
Neighs:         289156 ave      289156 max      289156 min
Histogram: 1 0 0 0 0 0 0 0 0 0

Total # of neighbors = 289156
Ave neighs/atom = 240.96333
Ave special neighs/atom = 1.9983333
Neighbor list builds = 41691
Dangerous builds = 0

# This simulation is done
# Move onto the next one
clear
  using 2 OpenMP thread(s) per MPI task
package omp 0
using multi-threaded neighbor list subroutines
next f
jump SELF

Total wall time: 6:54:10
