#atom_style bond #no stiffness
atom_style angle #with stiffness

boundary        p p p
###
# Pair interactions require lists of neighbours to be calculated
###

#neighbor 0.3 bin
neighbor 4 bin

neigh_modify every 1 delay 1 check yes
atom_modify sort 0 0
### Generate RESTART file, SPECIAL format, not a .txt file ###
### Useful if simulation crashes ###

restart 1000000 linear/restarts/$f.restart
restart 1000000 linear/restarts/bb900nuc0bl0bn0d30tot900.restart
#############################



### READ "start" data file ###

read_data linear/$f.dat
read_data linear/bb900nuc0bl0bn0d30tot900.dat
Reading data file ...
  orthogonal box = (-1000 -1000 -1000) to (1000 1000 1000)
  1 by 1 by 2 MPI processor grid
  reading atoms ...
  900 atoms
  scanning bonds ...
  1 = max bonds/atom
  scanning angles ...
  1 = max angles/atom
  reading bonds ...
  899 bonds
  reading angles ...
  898 angles
Finding 1-2 1-3 1-4 neighbors ...
  special bond factors lj:    0        0        0       
  special bond factors coul:  0        0        0       
     2 = max # of 1-2 neighbors
     2 = max # of 1-3 neighbors
     4 = max # of 1-4 neighbors
     6 = max # of special neighbors
  special bonds CPU = 0.001 seconds
  read_data CPU = 0.079 seconds

######################

### READ "REstart" data file ###

######################



###
# Define groups (atom type 1 is group 'all')
###
group all type 1
900 atoms in group all


###
# Dump configs - "simple dumpings"
###

###
# Dump configs + box coords
###

dump   1   all   custom   1000  linear/trjs/$f.lammpstrj  id  x y z  ix iy iz
dump   1   all   custom   1000  linear/trjs/bb900nuc0bl0bn0d30tot900.lammpstrj  id  x y z  ix iy iz
dump_modify   1   format line "%d %.5f %.5f %.5f %d %d %d"

########################################################################


###################################################################
# Stiffness term
#
# E = K * (1+cos(theta)), K>0
#
angle_style   cosine
#change this coefficient to change stiffness (e.g. 1,5,10)
angle_coeff   1 1.0
###################################################################

###################################################################
# Pair interaction between non-bonded atoms
#
#  Lennard-Jones 12-6 potential with cutoff:
#  potential E=4epsilon[ (sigma/r)^12 - (sigma/r)^6]  for r<r_cut
#
#  1.12246 = 2^(1/6) is the minimum of the potential


pair_style      lj/cut 1.12246152962189
#pair_style      lj/cut 3

#
#  pair_modify shift yes adds a constant to the potential such

#  that E(r_cut)=0. Forces remains unchanged.
#

pair_modify     shift yes

#
#  pair_coeff for lj/cut, specify 4:
#    * atom type interacting with
#    * atom type
#    * epsilon (energy units)
#    * sigma (distance units)
#

pair_coeff      1 1 1.0 1.0
###################################################################

###################################################################
# Pair interaction between non-bonded atoms
#
#  soft potential, for PUSHING apart overlapping atoms
#  potential E=A*(1 + cos(pi*r/r_c))
#
#  1.12246 = 2^(1/6) is the cut-off r_c

#pair_style     soft 1.12246152962189

#
#  pair_coeff for soft, specify 3:
#    * atom type interacting with
#    * atom type
#    * A
#
#

#pair_coeff      1 1 100.0
###################################################################

###################################################################
# Pair interaction between bonded atoms
#
# Fene potential + Lennard Jones 12-6:

#
#  E= - 0.5 K R0^2 ln[ 1- (r/R0)^2]
#     + 4epsilon[ (sigma/r)^12 - (sigma/r)^6] + epsilon
#

bond_style   fene


#
# For style fene, specify:
#   * bond type
#   * K (energy/distance^2)
#   * R0 (distance)
#   * epsilon (energy)  (LJ component)
#   * sigma (distance)  (LJ component)
#


special_bonds fene #<=== I M P O R T A N T (new command)
Finding 1-2 1-3 1-4 neighbors ...
  special bond factors lj:    0        1        1       
  special bond factors coul:  0        1        1       
     2 = max # of 1-2 neighbors
     6 = max # of special neighbors
  special bonds CPU = 0.000 seconds

bond_coeff   1   30   2   1.0   1.0


###################################################

###################################################################
# Pair interaction between bonded atoms
#
# Harmonic potential:
#
#  E= K * (R-R0)^2
#

#bond_style   harmonic

#
# For style harmonic, specify:
#   * bond type
#   * K (energy/distance^2)
#   * R0 (distance)
#

#bond_coeff   1   60.0   1.0
#bond_coeff   2   harmonic 0.1   1.0

###################################################
compute 1 all gyration
variable rog equal c_1
#compute 2 all coord/atom cutoff 1.1

#dump 2 all custom 10000 contact_number.dump id c_2


###
# Set up fixes
###
thermo_style   custom   step  temp enthalpy c_1
fix 1 all nve   ###NVE ensemble

fix 2 all   langevin   1.0 1.0 1.0  100103   ###Langevin integrator Tstart Tstop 1/friction rndseed


##### Sample thermodynamic info  (temperature, energy, pressure, etc.) #####
thermo 1000









############################################################################

###
# set timestep of integrator

timestep 0.01

###
# run integration for a number of steps
###
#run 0
#variable r equal c_1
#if "$r < 63.1" then "quit 1"

# lj potential minimum, cause molecule to explore
run 100000
Generated 0 of 0 mixed pair_coeff terms from geometric mixing rule
Last active /omp style is angle_style cosine/omp
Neighbor list info ...
  update: every = 1 steps, delay = 1 steps, check = yes
  max neighbors/atom: 2000, page size: 100000
  master list distance cutoff = 5.1224615
  ghost atom cutoff = 5.1224615
  binsize = 2.5612308, bins = 781 781 781
  1 neighbor lists, perpetual/occasional/extra = 1 0 0
  (1) pair lj/cut/omp, perpetual
      attributes: half, newton on, omp
      pair build: half/bin/newton/omp
      stencil: half/bin/3d
      bin: standard
WARNING: Communication cutoff 5.12246152962189 is shorter than a bond length based estimate of 5.455. This may lead to errors. (src/comm.cpp:723)
Per MPI rank memory allocation (min/avg/max) = 939.6 | 940.3 | 940.9 Mbytes
   Step          Temp         Enthalpy         c_1      
         0   0              13.411709      225.00026    
      1000   1.0255443      18.846021      224.87151    
      2000   0.99971111     18.920124      224.63914    
      3000   0.96985386     18.902897      224.46975    
      4000   1.0226505      18.575783      224.12386    
      5000   0.97940812     18.880756      223.91065    
      6000   1.0086176      18.853858      224.01851    
      7000   0.97317646     18.668211      223.8615     
      8000   0.98079158     18.962535      223.72963    
      9000   0.97547272     19.064491      223.37274    
     10000   1.0348693      19.461004      223.1152     
     11000   1.0085994      18.933561      223.04558    
     12000   1.0269108      19.081909      222.81863    
     13000   1.005761       19.021952      222.48022    
     14000   1.0361581      19.308332      222.53021    
     15000   1.0016767      19.231853      222.2568     
     16000   1.0382611      18.715664      222.07897    
     17000   0.99036856     18.987844      222.21114    
     18000   1.0022133      18.664802      222.06566    
     19000   0.9961408      19.038524      221.92817    
     20000   0.96257421     19.003781      221.75565    
     21000   1.0072468      19.205327      221.61294    
     22000   1.0132026      19.323849      221.25919    
     23000   1.0166556      18.915528      220.9836     
     24000   1.0108766      19.186868      220.73563    
     25000   1.013472       19.177883      220.65665    
     26000   1.0174505      19.308307      220.38562    
     27000   1.0522839      19.42799       220.3109     
     28000   1.0130339      18.886724      220.09024    
     29000   0.99754087     19.30377       219.81111    
     30000   1.0017564      19.358057      219.48317    
     31000   1.0075984      19.470378      219.28355    
     32000   1.0255637      19.253161      219.36657    
     33000   0.99415411     19.294401      219.40056    
     34000   1.054099       19.40341       219.07183    
     35000   1.0241838      19.246249      218.69588    
     36000   1.0083215      19.110883      218.59054    
     37000   1.0178403      19.584238      218.44853    
     38000   0.97177651     19.426226      218.43504    
     39000   1.0526806      19.46696       218.07897    
     40000   1.043567       19.311958      217.68571    
     41000   1.0013038      18.940584      217.45458    
     42000   0.99643194     19.32247       217.20268    
     43000   0.99781939     19.564816      217.15467    
     44000   0.96259369     19.385662      217.08101    
     45000   0.99232863     19.089154      216.75449    
     46000   1.0285508      19.234815      216.43357    
     47000   1.0402584      19.464953      216.0426     
     48000   1.0000172      19.320688      215.98164    
     49000   0.99773015     19.209617      215.7487     
     50000   0.94835377     19.161521      215.6472     
     51000   1.0269941      19.129868      215.42164    
     52000   0.96322341     19.422771      214.86397    
     53000   0.95719949     18.91483       214.79165    
     54000   1.0205946      19.168281      214.83271    
     55000   0.9893856      19.091083      214.59717    
     56000   1.0212451      19.311992      214.24183    
     57000   0.95973735     19.386291      214.07957    
     58000   0.96979316     19.085338      213.94562    
     59000   1.0119919      19.516589      213.88472    
     60000   0.99738871     19.854102      213.6349     
     61000   0.95494943     19.312177      213.34195    
     62000   0.98321135     19.032178      213.08669    
     63000   0.98649379     19.763639      212.81545    
     64000   1.0090016      19.261687      212.54418    
     65000   1.0279406      19.648548      212.42866    
     66000   1.0021417      19.360005      212.36433    
     67000   0.95582421     19.694646      212.2204     
     68000   0.96389279     19.13877       211.95301    
     69000   0.99149948     19.443412      211.84044    
     70000   0.99537377     19.330499      211.78552    
     71000   0.99841107     19.060685      211.87087    
     72000   0.97108665     19.320139      211.74221    
     73000   1.054503       19.558509      211.40395    
     74000   1.0237665      19.583175      211.19674    
     75000   0.99930126     19.540724      210.97197    
     76000   1.0295025      19.447491      210.82052    
     77000   0.99343016     19.275688      210.58421    
     78000   1.0082951      19.800045      210.46616    
     79000   1.063405       19.874553      210.1761     
     80000   1.0191676      20.021743      209.98474    
     81000   1.0137579      19.674536      210.17334    
     82000   0.97900488     19.09271       210.09087    
     83000   0.97892182     19.1239        209.81966    
     84000   1.0209076      19.405429      209.74115    
     85000   1.0240254      19.253088      209.71395    
     86000   0.97439563     19.653239      209.67458    
     87000   1.0174996      19.357721      209.71603    
     88000   1.0498967      19.797151      209.58383    
     89000   1.0412136      19.670309      209.44604    
     90000   1.0601755      19.831659      209.2367     
     91000   1.0303063      19.210174      208.94821    
     92000   0.99523114     19.552263      208.89953    
     93000   0.98534316     19.336658      208.49316    
     94000   1.0176438      19.876038      208.27411    
     95000   1.0283321      19.713599      208.09135    
     96000   0.9945424      19.691448      208.03137    
     97000   0.94954362     19.308736      207.83753    
     98000   0.99370508     19.336036      207.72077    
     99000   0.96001735     19.708877      207.82949    
    100000   1.0062276      19.572255      207.80408    
Loop time of 248.028 on 4 procs for 100000 steps with 900 atoms

Performance: 348348.187 tau/day, 403.181 timesteps/s
103.7% CPU use with 2 MPI tasks x 2 OpenMP threads

MPI task timing breakdown:
Section |  min time  |  avg time  |  max time  |%varavg| %total
---------------------------------------------------------------
Pair    | 0.60895    | 0.63351    | 0.65807    |   3.1 |  0.26
Bond    | 1.1864     | 1.3468     | 1.5071     |  13.8 |  0.54
Neigh   | 240.41     | 240.41     | 240.41     |   0.0 | 96.93
Comm    | 1.9058     | 2.0189     | 2.132      |   8.0 |  0.81
Output  | 0.22568    | 0.22927    | 0.23285    |   0.7 |  0.09
Modify  | 2.1055     | 2.4995     | 2.8934     |  24.9 |  1.01
Other   |            | 0.887      |            |       |  0.36

Nlocal:            450 ave         538 max         362 min
Histogram: 1 0 0 0 0 0 0 0 0 1
Nghost:          438.5 ave         530 max         347 min
Histogram: 1 0 0 0 0 0 0 0 0 1
Neighs:         2235.5 ave        2420 max        2051 min
Histogram: 1 0 0 0 0 0 0 0 0 1

Total # of neighbors = 4471
Ave neighs/atom = 4.9677778
Ave special neighs/atom = 1.9977778
Neighbor list builds = 1050
Dangerous builds = 0

# Replace lj potential, now collapse
pair_style      lj/cut 3

# Cutoff simul when gyration under 5
# Variable created with equal requires v_ + 'name'
fix 3 all halt 1000 v_rog < 5

run 5000000
Generated 0 of 0 mixed pair_coeff terms from geometric mixing rule
Last active /omp style is angle_style cosine/omp
Per MPI rank memory allocation (min/avg/max) = 939.6 | 940.3 | 940.9 Mbytes
   Step          Temp         Enthalpy         c_1      
    100000   1.0062276      19.103942      207.80408    
    101000   0.98396623     19.655102      207.65685    
    102000   1.0165706      19.213418      207.38522    
    103000   0.99928497     19.267702      207.42342    
    104000   1.0076486      18.931335      207.39213    
    105000   1.0020333      19.073502      207.26354    
    106000   1.0031247      19.075952      206.81761    
    107000   1.022732       19.301733      206.68296    
    108000   1.0254807      19.445297      206.60097    
    109000   0.99230821     19.073955      206.56916    
    110000   0.95740376     19.213046      206.64544    
    111000   0.96482243     19.102754      206.34821    
    112000   1.0049247      19.251972      206.12756    
    113000   0.94790541     19.186689      205.81261    
    114000   1.0170888      19.215595      205.5181     
    115000   1.0192141      18.948914      205.53711    
    116000   1.0041544      18.671252      205.63889    
    117000   0.99650759     19.162481      205.61295    
    118000   1.0041068      19.396096      205.67154    
    119000   1.0311683      18.977955      205.33244    
    120000   1.0172219      18.93001       205.12586    
    121000   1.0582617      18.989957      205.04357    
    122000   1.0306723      18.859119      204.81836    
    123000   1.015647       19.330427      204.78629    
    124000   0.97337051     18.888792      204.79272    
    125000   1.0198559      19.348925      204.6932     
    126000   0.9947259      19.165925      204.849      
    127000   1.0122504      19.730945      204.85644    
    128000   1.0128932      19.372538      204.79475    
    129000   0.96997179     19.466544      204.67863    
    130000   0.98880209     19.320567      204.56245    
    131000   1.0214055      19.523096      204.5653     
    132000   1.0168952      19.257781      204.62933    
    133000   0.98270051     19.107352      204.61609    
    134000   0.97764942     18.969478      204.63781    
    135000   1.0293633      19.378908      204.48865    
    136000   1.0004675      18.853789      204.5668     
    137000   0.96539955     18.886425      204.39791    
    138000   1.0075595      19.207122      204.32119    
    139000   1.0278177      19.057647      204.30542    
    140000   0.96915703     18.814544      204.14473    
    141000   1.0500167      19.870833      203.94811    
    142000   1.0370367      19.549335      203.74262    
    143000   0.98313774     19.332121      203.43007    
    144000   0.95875212     19.349467      203.28818    
    145000   0.99868922     19.221908      203.15057    
    146000   0.99711305     18.892895      202.98022    
    147000   1.0658829      19.540507      202.70417    
    148000   0.99782258     19.387079      202.71537    
    149000   0.99014609     19.031211      202.62305    
    150000   1.0232649      19.001108      202.33913    
    151000   0.97700672     19.447364      202.24035    
    152000   0.96561077     18.74447       202.35928    
    153000   1.0028492      18.956626      202.08269    
    154000   0.9930863      19.159399      201.76711    
    155000   0.97140657     18.37339       201.663      
    156000   0.98347377     19.054151      201.28411    
    157000   0.98142799     18.951424      201.17544    
    158000   0.98409607     19.336154      200.96171    
    159000   1.015353       19.163072      200.81206    
    160000   1.0447035      19.500297      200.53405    
    161000   1.0485037      19.180995      200.31001    
    162000   0.96683102     19.05178       200.25612    
    163000   0.98528459     19.248825      200.10287    
    164000   1.004534       19.176177      199.81088    
    165000   1.0511607      19.277489      199.69934    
    166000   1.0095201      19.004892      199.53839    
    167000   1.0347639      18.717958      199.42934    
    168000   0.98078867     18.892283      199.07544    
    169000   1.0060617      19.108034      199.22639    
    170000   0.98489759     18.851283      198.92935    
    171000   1.0212363      19.124161      198.71914    
    172000   0.98893422     19.41605       198.58404    
    173000   1.0294452      18.965819      198.49227    
    174000   1.009079       19.184984      198.34271    
    175000   0.99498871     18.846906      198.10776    
    176000   0.97968466     18.804143      197.75735    
    177000   1.0030738      19.183838      197.63624    
    178000   0.94394749     19.160559      197.43696    
    179000   0.99494432     19.178896      197.36642    
    180000   0.98343955     19.111322      197.50654    
    181000   0.95736203     19.167004      197.49834    
    182000   0.95105581     19.057817      197.34534    
    183000   0.98083632     19.235511      197.10612    
    184000   1.0103402      19.349297      196.96014    
    185000   0.98838772     19.160317      196.8505     
    186000   1.0484053      19.262662      196.83883    
    187000   1.045305       19.240311      196.59351    
    188000   0.9745346      19.11224       196.55407    
    189000   0.97454888     18.680586      196.59236    
    190000   0.95303244     19.421198      196.33079    
    191000   0.97635319     19.117619      196.09136    
    192000   0.97074147     18.899115      196.06749    
    193000   1.0262624      19.401796      195.8563     
    194000   0.97712921     19.182477      195.74389    
    195000   0.98212418     18.718838      195.67557    
    196000   1.01286        18.772694      195.69837    
    197000   0.99557711     18.852402      195.68223    
    198000   0.97511344     19.090776      195.54065    
    199000   1.0165658      19.14847       195.61402    
    200000   0.96566412     19.333392      195.53715    
    201000   1.032843       18.727827      195.57546    
    202000   0.96646635     19.522842      195.56704    
    203000   0.9788207      19.415791      195.52174    
    204000   1.03362        18.755667      195.23883    
    205000   1.0561813      19.277613      194.85891    
    206000   0.97381771     19.012398      194.86002    
    207000   1.0185301      18.865327      194.75322    
    208000   0.96733435     18.752927      194.78742    
    209000   1.0065047      19.099323      194.76615    
    210000   0.99389726     18.399975      194.55842    
    211000   0.97766716     19.261912      194.40932    
    212000   1.0086607      19.133535      194.15213    
    213000   0.97439593     18.884906      194.02929    
    214000   1.0188924      19.2761        193.77533    
    215000   0.99304714     19.107381      193.641      
    216000   1.023428       19.018012      193.42162    
    217000   0.99448654     19.167732      193.42114    
    218000   1.0354467      19.405229      193.16555    
    219000   0.97181945     19.123896      192.9861     
    220000   0.96742151     18.517421      192.77073    
    221000   1.0420923      19.299113      192.82892    
    222000   1.0017696      19.002467      192.69979    
    223000   1.024605       18.87453       192.50109    
    224000   0.93647076     19.345615      192.09651    
    225000   0.99106808     19.061877      191.57966    
    226000   1.0380511      19.47566       191.81504    
    227000   0.98172514     19.38761       191.6265     
    228000   0.98338637     19.126672      191.50794    
    229000   0.9753379      19.117925      191.20628    
    230000   1.0378464      19.426954      191.01656    
    231000   1.0436204      19.933929      190.7671     
    232000   0.99656531     19.270644      190.61518    
    233000   1.0332974      19.401321      190.95892    
    234000   0.98020743     19.252352      190.9954     
    235000   1.0159378      19.182729      190.99598    
    236000   0.99439517     18.551645      190.88514    
    237000   0.9862067      18.706448      190.76083    
    238000   0.98215802     19.113426      190.82799    
    239000   1.0619286      19.374386      190.60994    
    240000   0.99762239     19.273748      190.59042    
    241000   1.0182098      18.655156      190.43735    
    242000   0.99755455     19.463053      190.48318    
    243000   1.0224325      18.873278      190.25135    
    244000   0.95536301     19.219459      190.16409    
    245000   1.013176       19.254885      190.02833    
    246000   1.0416148      18.986278      189.92643    
    247000   0.96959055     18.415512      189.8047     
    248000   0.96270464     18.768272      189.78049    
    249000   1.0684035      18.825056      189.52405    
    250000   0.97255972     18.547034      189.6045     
    251000   1.0058825      19.267671      189.59676    
    252000   1.0064411      19.100792      189.52038    
    253000   1.0127935      19.175268      189.48507    
    254000   1.0116775      18.874238      189.36377    
    255000   1.0045798      19.139095      189.50299    
    256000   0.9738797      19.07941       189.67371    
    257000   1.0529847      18.873385      189.65729    
    258000   1.0169207      19.664793      189.45581    
    259000   1.0092874      19.277069      189.73106    
    260000   1.0276503      19.267183      189.61283    
    261000   1.0347786      18.844954      189.564      
    262000   0.99892396     18.716431      189.47908    
    263000   0.96365387     18.902283      189.36977    
    264000   0.98097257     19.232406      189.36931    
    265000   0.99645984     19.009047      189.16143    
    266000   0.91976822     19.181371      189.09036    
    267000   1.0022526      19.253076      189.11396    
    268000   0.97776948     18.957325      188.91666    
    269000   0.95582159     18.561063      188.68176    
    270000   1.0196579      18.935608      188.50606    
    271000   0.98605233     18.875569      188.23286    
    272000   0.99241042     19.118802      188.00941    
    273000   1.0156093      20.034708      187.6483     
    274000   0.99986147     18.777472      187.71204    
    275000   0.99501661     18.732524      187.4902     
    276000   0.998115       18.867287      187.39371    
    277000   1.0004815      18.962431      187.24834    
    278000   1.0062432      18.712829      187.25147    
    279000   1.0465802      18.706563      187.13931    
    280000   0.95453875     19.185687      187.02978    
    281000   1.0178035      18.573898      186.96545    
    282000   0.99096037     18.785263      186.7285     
    283000   0.95189966     19.513802      186.33934    
    284000   0.98423938     18.420794      185.95308    
    285000   1.001318       19.369236      185.77122    
    286000   1.0367035      19.169802      185.49746    
    287000   0.96436418     18.625063      185.35375    
    288000   0.98217728     19.298674      185.20025    
    289000   0.96201918     19.144871      185.10111    
    290000   0.93458317     19.022363      185.02398    
    291000   0.93698227     18.719312      184.73203    
    292000   1.0108337      18.446842      184.43202    
    293000   0.96867474     18.995943      184.13565    
    294000   1.0104055      18.993225      183.94827    
    295000   0.9938862      19.130634      183.97633    
    296000   0.97892933     19.112088      183.98642    
    297000   0.97208208     18.680713      183.97654    
    298000   1.0155407      19.063823      183.858      
    299000   1.024208       19.222839      184.09642    
    300000   1.0339685      19.488914      184.16482    
    301000   0.96126274     19.221089      184.16405    
    302000   1.0063489      19.344561      184.00038    
    303000   1.0327708      19.522414      183.92428    
    304000   1.0339135      19.085224      183.75579    
    305000   0.97538219     19.389072      183.53055    
    306000   0.99464616     18.548428      183.4866     
    307000   0.97903147     18.391648      183.31824    
    308000   1.0178255      19.283597      183.30464    
    309000   0.99338258     18.809932      183.08911    
    310000   1.0069385      19.13618       182.59098    
    311000   1.0194944      19.380602      182.50486    
    312000   1.0055356      19.22036       182.26206    
    313000   1.0031179      18.257649      182.20253    
    314000   1.0232001      18.991299      182.04571    
    315000   0.96852555     19.027511      182.11471    
    316000   1.0042767      19.018796      182.11565    
    317000   1.0224869      19.265339      181.98447    
    318000   0.97817739     19.261586      181.69328    
    319000   0.99474299     19.150403      181.4941     
    320000   1.0188331      19.015875      181.53796    
    321000   1.0294371      18.984966      181.26045    
    322000   1.0330944      19.13959       181.20158    
    323000   0.99818963     19.209096      181.08894    
    324000   1.0266524      19.137064      181.02328    
    325000   0.99199313     18.783353      181.04435    
    326000   1.0569036      18.67482       181.07719    
    327000   1.0050828      19.344357      180.99446    
    328000   0.99614678     18.997487      180.98397    
    329000   0.94384642     19.259471      181.01614    
    330000   0.97490735     18.79863       180.91324    
    331000   1.024746       19.070499      180.59088    
    332000   0.95987836     18.85899       180.3683     
    333000   0.98781267     19.007207      180.26317    
    334000   0.99275263     18.632328      180.18822    
    335000   0.99491245     18.935209      180.08977    
    336000   1.0068514      19.137286      179.98906    
    337000   0.9930411      18.612469      179.85984    
    338000   1.0292157      19.722663      179.65254    
    339000   0.99382619     18.751364      179.36165    
    340000   1.0063152      18.743329      179.39498    
    341000   1.0075232      19.58144       179.45304    
    342000   1.0034195      19.207064      179.40641    
    343000   0.96605128     18.458129      179.35635    
    344000   1.0691455      19.458557      179.15958    
    345000   0.98342403     19.143619      178.83284    
    346000   0.99009556     18.881931      178.54804    
    347000   0.95734912     19.293556      178.51857    
    348000   0.95596529     18.803012      178.17757    
    349000   0.97163754     19.018658      178.20476    
    350000   0.97919329     19.003932      177.91647    
    351000   0.98854521     19.253998      177.78732    
    352000   1.0131363      18.86815       177.79856    
    353000   0.98072895     18.833361      177.87118    
    354000   0.9594066      19.05253       177.81061    
    355000   0.99838692     18.594897      177.64174    
    356000   0.99102727     18.918072      177.6747     
    357000   0.98992616     19.205185      177.76215    
    358000   0.9719232      19.026684      177.69134    
    359000   1.0065508      19.157964      177.69635    
    360000   1.0461043      20.029224      177.51385    
    361000   0.9912188      18.869322      177.28157    
    362000   1.0112453      18.541163      176.92273    
    363000   0.97852022     18.67768       177.05006    
    364000   0.98384066     18.357976      177.00934    
    365000   1.0120436      18.671444      176.85145    
    366000   1.0125429      18.811709      176.53782    
    367000   1.0082232      19.222413      176.4298     
    368000   1.0379977      19.338141      176.34524    
    369000   0.99484624     18.777363      176.41776    
    370000   1.0316584      19.189988      176.23507    
    371000   1.0157777      18.91334       176.16579    
    372000   0.98018493     19.243177      176.08878    
    373000   0.96698986     19.209655      175.93364    
    374000   1.0019557      18.903274      175.69974    
    375000   1.0054057      18.982151      175.56537    
    376000   0.9925069      19.19201       175.69229    
    377000   1.0165439      19.398903      175.63093    
    378000   0.99763102     19.154079      175.26102    
    379000   1.0124074      18.367209      175.05175    
    380000   0.93749957     18.797388      174.77328    
    381000   1.0228881      18.939137      174.79898    
    382000   0.97656595     18.705696      174.64981    
    383000   0.95738663     18.756526      174.56082    
    384000   1.0082808      18.650517      174.40541    
    385000   0.98337447     18.334195      174.19607    
    386000   0.98637636     18.609741      174.01738    
    387000   0.95812584     18.634044      173.99764    
    388000   0.97511626     18.826709      174.06433    
    389000   0.97823266     18.829592      174.06453    
    390000   1.0060141      19.013982      174.04734    
    391000   0.98329687     18.810376      173.96504    
    392000   1.0369941      19.020049      173.86747    
    393000   0.99567378     19.340937      173.58166    
    394000   1.0502489      18.833646      173.27061    
    395000   1.0163659      19.168155      173.40426    
    396000   0.99151487     18.934919      172.93708    
    397000   1.0010978      19.373037      172.84141    
    398000   0.99334012     18.405916      172.76817    
    399000   0.97992115     19.596382      172.56301    
    400000   0.96519203     19.096846      172.54458    
    401000   1.0018897      18.761873      172.72401    
    402000   0.98740258     18.91627       172.68248    
    403000   0.99539271     18.729523      172.63823    
    404000   0.98739402     18.6783        172.65998    
    405000   0.97121499     19.178065      172.68261    
    406000   0.97412891     19.071469      172.85918    
    407000   0.99143406     18.735939      172.66923    
    408000   0.99739544     19.267096      172.62173    
    409000   0.99615886     18.86048       172.29519    
    410000   0.97512177     19.196501      172.40578    
    411000   1.0183356      18.87672       172.16851    
    412000   1.0042337      18.918058      171.8424     
    413000   0.98311455     19.034957      171.80287    
    414000   0.97378591     18.570271      171.39741    
    415000   0.99518761     18.814797      171.40681    
    416000   1.0262692      19.168126      171.15605    
    417000   0.97537315     18.669476      170.74433    
    418000   0.96627038     18.70628       170.4971     
    419000   1.0580137      19.328499      170.46993    
    420000   1.0110484      18.737706      170.47615    
    421000   0.97402357     18.918473      170.26275    
    422000   1.0089741      18.697247      169.94645    
    423000   0.96983331     18.781991      169.62546    
    424000   1.012541       18.440989      169.6714     
    425000   1.0190729      18.365741      169.67918    
    426000   0.98161071     18.714239      169.57373    
    427000   1.0171879      19.315895      169.6524     
    428000   1.0127442      18.650047      169.36262    
    429000   0.98468616     19.691149      169.23956    
    430000   1.0108969      18.840244      169.08717    
    431000   1.0209757      18.695727      169.07457    
    432000   1.0010071      18.991709      168.92518    
    433000   1.0489503      19.079258      168.70871    
    434000   0.97162055     19.384728      168.69931    
    435000   1.0084803      18.634417      168.68734    
    436000   1.0505179      19.076861      168.67274    
    437000   1.0005429      18.64945       168.60101    
    438000   0.99726402     18.899534      168.40564    
    439000   1.0410581      19.073908      168.51055    
    440000   0.95344299     18.426328      168.42814    
    441000   0.98912288     18.927797      168.56085    
    442000   0.99153584     19.498122      168.52808    
    443000   1.0408053      19.591399      168.48584    
    444000   1.0155482      18.575984      168.87072    
    445000   0.98191298     19.323649      168.93466    
    446000   0.96468934     19.111562      168.85748    
    447000   0.98146773     19.349607      168.78309    
    448000   0.95760766     18.98529       168.72314    
    449000   0.97796973     18.333778      168.7272     
    450000   0.97979377     18.399115      168.58536    
    451000   1.0254893      19.356561      168.62382    
    452000   0.98132719     18.769786      168.59356    
    453000   1.0115548      18.447433      168.58116    
    454000   0.99306059     18.643968      168.42317    
    455000   0.97054992     18.908525      168.59651    
    456000   1.0289263      19.104133      168.4558     
    457000   1.0593284      19.016284      168.49373    
    458000   0.97181403     18.077814      168.52482    
    459000   0.98613972     18.624356      168.29196    
    460000   1.0151609      18.336881      168.18372    
    461000   0.97136636     18.963463      168.1787     
    462000   0.97180313     18.972591      168.06844    
    463000   0.97959956     17.919254      168.01018    
    464000   0.98486591     18.859461      167.89951    
    465000   1.0183797      19.513153      167.70207    
    466000   1.0280045      18.805989      167.4223     
    467000   1.0450813      19.226243      167.31248    
    468000   0.93740871     18.920357      167.27902    
    469000   0.99716451     19.207852      166.87982    
    470000   0.9906814      18.44667       166.65087    
    471000   1.0403161      19.616013      166.55859    
    472000   1.0288968      18.755347      166.57164    
    473000   0.98361458     18.87083       166.33492    
    474000   1.0172075      18.362984      166.22054    
    475000   1.0112832      18.455086      166.00343    
    476000   0.97582158     18.715739      165.88733    
    477000   0.99474309     18.925158      165.73647    
    478000   1.0277108      18.756274      165.60881    
    479000   0.99329923     19.520349      165.35165    
    480000   1.0028672      18.904234      165.44439    
    481000   0.96419208     18.626423      165.31464    
    482000   0.97312907     18.603677      165.22686    
    483000   0.96817273     18.440393      165.12906    
    484000   0.99760085     19.007286      165.10398    
    485000   0.94641169     18.49606       165.06573    
    486000   1.0275555      19.032518      165.04228    
    487000   0.97543029     18.300363      165.19552    
    488000   1.055122       19.52187       165.0391     
    489000   0.99948324     18.570138      164.88929    
    490000   0.94446436     18.364822      164.95861    
    491000   0.96467635     18.596316      164.80021    
    492000   0.99323815     18.654875      164.66721    
    493000   0.99924606     18.847867      164.52009    
    494000   1.0321107      18.955763      164.57034    
    495000   1.0229946      19.146169      164.61475    
    496000   0.99649317     18.783571      164.43094    
    497000   0.98067227     18.329933      164.59477    
    498000   1.0133506      19.17078       164.43755    
    499000   1.0660745      19.004172      164.36452    
    500000   0.98738144     18.599406      164.24254    
    501000   1.0067489      19.258186      164.10656    
    502000   1.0206535      18.774991      164.05112    
    503000   1.0270072      18.496391      163.81152    
    504000   1.0060565      18.998773      163.6338     
    505000   1.0217287      18.841306      163.4202     
    506000   1.0049022      18.87144       163.47655    
    507000   0.98683524     18.514574      163.25119    
    508000   1.0394147      18.923053      163.13577    
    509000   0.99241836     18.960151      163.07013    
    510000   0.97885165     18.508628      162.91753    
    511000   0.98872444     18.436289      162.99737    
    512000   0.94652089     18.692613      162.90647    
    513000   1.0003147      18.566757      162.78236    
    514000   1.0048387      18.848904      162.95848    
    515000   1.0175704      18.768277      162.52787    
    516000   1.0453922      18.912944      162.54272    
    517000   1.0002453      18.87495       162.43416    
    518000   1.0076725      18.452357      162.38318    
    519000   1.0189591      18.480089      162.33689    
    520000   1.0181043      18.372358      162.16892    
    521000   1.0724371      18.80401       162.15602    
    522000   1.0206019      18.806841      161.91616    
    523000   0.97956929     19.286429      161.64665    
    524000   0.96372532     19.05448       161.57506    
    525000   0.98662345     18.989618      161.43722    
    526000   0.98872612     18.134289      161.52622    
    527000   1.0228486      18.651419      161.38346    
    528000   1.0802759      18.94047       161.37733    
    529000   1.008678       18.764349      161.38251    
    530000   0.99781648     18.727874      161.41259    
    531000   0.98428833     19.01185       161.45767    
    532000   1.0065407      18.637069      161.12412    
    533000   0.96903954     18.712881      161.08674    
    534000   1.0252454      18.6038        161.02178    
    535000   0.97116988     18.712528      161.07088    
    536000   1.0353222      18.888132      160.87817    
    537000   0.96375865     18.77056       160.59623    
    538000   1.0164128      18.933169      160.47455    
    539000   0.98564023     18.4883        160.39038    
    540000   0.99219071     19.126784      160.21157    
    541000   1.0368739      18.713819      160.24679    
    542000   0.97514152     18.911407      160.00056    
    543000   0.94413513     18.40814       159.83373    
    544000   0.99243041     18.790489      159.68799    
    545000   0.99586511     18.843803      159.60083    
    546000   0.99981207     18.64464       159.53454    
    547000   0.96858271     18.651613      159.47817    
    548000   1.020727       19.242918      159.54442    
    549000   0.99471425     19.089163      159.7357     
    550000   0.96585451     18.309275      159.79813    
    551000   0.98512637     19.12004       159.79189    
    552000   1.052888       19.058148      159.85502    
    553000   1.0254881      19.178675      159.86277    
    554000   1.0028356      18.406361      159.64996    
    555000   1.0035075      18.334452      159.4256     
    556000   0.93843566     18.263817      159.23618    
    557000   1.0660558      18.250112      158.94952    
    558000   1.0089017      18.190593      158.80499    
    559000   0.99017813     18.636392      158.69889    
    560000   1.0274912      18.607791      158.5851     
    561000   1.0249062      18.611343      158.35       
    562000   1.0179297      18.64161       158.36114    
    563000   0.95758211     18.585831      158.16587    
    564000   0.99207427     18.513713      158.10831    
    565000   1.0338218      19.099173      158.08096    
    566000   0.97497968     18.972176      158.02433    
    567000   0.95861768     19.004149      157.76158    
    568000   1.0284851      19.193498      157.8549     
    569000   1.0352737      18.989761      157.71329    
    570000   0.96754391     18.17417       157.51137    
    571000   0.97613027     18.991041      157.62944    
    572000   1.048757       19.019232      157.36124    
    573000   1.0520268      19.366314      157.49015    
    574000   0.98467874     19.126121      157.24245    
    575000   1.0110322      18.832057      156.92667    
    576000   1.0339304      18.889188      156.78384    
    577000   0.96714769     18.785828      156.57881    
    578000   0.99466713     18.891237      156.21127    
    579000   0.97328484     18.288603      156.085      
    580000   0.96741283     18.444963      155.87546    
    581000   1.070352       18.967172      155.69561    
    582000   0.98808641     18.587079      155.62891    
    583000   1.0174331      19.21854       155.66512    
    584000   0.99682281     18.200142      155.50685    
    585000   1.0523138      18.773039      155.38199    
    586000   0.98302773     18.878398      155.12872    
    587000   0.97949514     18.627718      154.93698    
    588000   1.0005786      19.655986      154.86925    
    589000   0.91892247     18.728984      154.82409    
    590000   0.99133263     18.929765      154.70636    
    591000   1.0326548      18.816519      154.71585    
    592000   1.0070465      18.41293       154.91569    
    593000   0.97123688     18.515396      154.77097    
    594000   0.99218166     18.726932      154.72262    
    595000   0.99027721     18.659251      154.68508    
    596000   1.0397537      18.944374      154.65324    
    597000   0.97297014     19.02607       154.70035    
    598000   0.99619407     18.798525      154.8615     
    599000   0.99335037     18.90419       154.61006    
    600000   1.0017818      19.029212      154.58563    
    601000   1.026236       18.781021      154.67451    
    602000   0.98578335     18.242158      154.68825    
    603000   1.0717793      19.177102      154.60319    
    604000   0.98773857     18.434408      154.35632    
    605000   0.98737373     18.926431      153.96512    
    606000   1.0125213      19.172043      154.01476    
    607000   0.98217174     18.439634      154.04143    
    608000   1.010165       18.789918      153.62579    
    609000   1.0236498      18.789337      153.44538    
    610000   0.96320693     18.499049      153.43036    
    611000   1.0278846      18.524383      153.24737    
    612000   1.0121903      19.412403      152.93929    
    613000   0.95941607     18.533987      152.73452    
    614000   1.0463271      18.560707      152.55497    
    615000   1.005052       18.703536      152.48299    
    616000   1.0069982      18.600658      152.2357     
    617000   0.99655057     18.853303      152.13       
    618000   0.96739649     18.422077      152.00802    
    619000   1.014663       19.079711      151.68419    
    620000   0.97300783     18.68214       151.43849    
    621000   1.0299246      18.750416      151.20245    
    622000   0.97766899     18.050292      150.86234    
    623000   0.99870461     18.62496       150.60851    
    624000   1.0366013      18.665548      150.47149    
    625000   0.99521669     18.115511      150.46616    
    626000   0.96677588     18.920018      150.27862    
    627000   1.0173505      19.017927      150.2923     
    628000   0.99593679     18.837525      150.22897    
    629000   1.0022589      18.601143      150.17983    
    630000   0.95044165     18.522819      150.05073    
    631000   1.0291519      18.509156      149.94947    
    632000   0.99963812     18.953117      149.81334    
    633000   0.95193511     18.692344      149.76029    
    634000   1.0139961      18.463794      149.60986    
    635000   1.0184323      18.375432      149.46913    
    636000   1.0013831      18.306525      149.28914    
    637000   1.0052867      19.135165      149.42199    
    638000   1.0636452      18.784007      149.47785    
    639000   1.0005353      18.058655      149.18796    
    640000   1.0182538      18.686828      149.19397    
    641000   0.98809086     19.283598      149.16639    
    642000   0.97697352     19.028042      149.21843    
    643000   0.99279957     18.540887      149.0586     
    644000   0.99853197     18.795767      148.78679    
    645000   1.029332       19.402177      148.60633    
    646000   1.0259832      18.848692      148.47713    
    647000   0.9482289      18.229858      148.45663    
    648000   1.0230702      19.051657      148.22357    
    649000   1.006015       18.711549      148.17257    
    650000   1.0351216      18.663761      147.96961    
    651000   1.0497262      18.313322      148.01316    
    652000   1.0000714      18.457006      147.73099    
    653000   1.0100839      18.904858      147.44009    
    654000   0.95783342     18.848444      147.49947    
    655000   1.0208064      19.333745      147.5016     
    656000   1.0731749      18.348055      147.29994    
    657000   1.0037773      19.043094      147.22645    
    658000   0.96644685     18.008992      147.37461    
    659000   1.0036103      18.84266       147.39423    
    660000   1.0317468      18.513011      147.26051    
    661000   0.97711762     18.322873      146.98916    
    662000   1.028167       18.953385      146.71763    
    663000   0.97514574     18.613677      146.63681    
    664000   0.97880129     18.057468      146.72448    
    665000   0.98289154     18.665594      146.89833    
    666000   0.99638746     18.541871      146.7035     
    667000   0.98588842     18.604727      146.58646    
    668000   1.011256       18.304347      146.27524    
    669000   0.99584256     18.885467      146.10271    
    670000   0.92957201     18.875859      146.05588    
    671000   1.0145686      18.332574      145.99391    
    672000   0.97321012     18.949409      145.83641    
    673000   0.97887482     18.18231       145.77084    
    674000   1.0052904      18.806977      145.82389    
    675000   1.0070346      18.868239      145.61092    
    676000   0.98522618     19.20865       145.34298    
    677000   1.0187241      19.284449      145.21039    
    678000   1.0453846      18.899295      145.07008    
    679000   1.005008       18.387046      145.17532    
    680000   0.97627295     18.579863      145.09524    
    681000   1.0437149      19.120147      144.95991    
    682000   0.96360301     18.54642       144.98154    
    683000   1.0116655      18.913552      144.71319    
    684000   0.99516837     18.393272      144.5157     
    685000   1.0165553      18.800275      144.28154    
    686000   1.0453293      19.070572      144.14095    
    687000   1.0037465      18.895964      144.16949    
    688000   0.96228165     18.287698      144.09075    
    689000   1.0286063      19.008333      144.15887    
    690000   1.047213       18.703775      144.03875    
    691000   1.0455571      18.236621      143.90527    
    692000   1.0108805      18.630241      143.63581    
    693000   0.95013154     18.266552      143.56022    
    694000   0.95916624     18.581114      143.73453    
    695000   1.0128109      18.188045      143.6138     
    696000   1.0032292      18.490136      143.5272     
    697000   0.98015558     18.764219      143.56328    
    698000   0.96803371     18.675125      143.36551    
    699000   1.016143       18.551841      143.44004    
    700000   0.99436678     18.206207      143.31401    
    701000   0.99082054     18.559403      143.01321    
    702000   1.0035623      18.685917      142.77558    
    703000   0.98560036     18.891146      142.90261    
    704000   0.98277455     18.632378      143.17438    
    705000   1.0082482      19.083859      142.9436     
    706000   1.0041506      18.152824      142.63097    
    707000   1.0341254      18.345377      142.49303    
    708000   1.0541953      18.441344      142.21011    
    709000   1.013531       19.082239      142.05427    
    710000   1.0161472      18.013509      141.88629    
    711000   0.95179943     18.167274      141.78954    
    712000   0.97511134     19.029329      141.66538    
    713000   0.98781455     18.987737      141.20752    
    714000   1.008012       18.224901      141.11833    
    715000   1.0258476      19.319706      141.04182    
    716000   1.0221866      18.891931      140.75448    
    717000   1.0345773      18.903203      140.63822    
    718000   1.002278       18.717714      140.50075    
    719000   0.98281768     18.05595       140.38436    
    720000   1.0152963      18.980584      140.0873     
    721000   0.96802551     18.482728      139.91411    
    722000   0.98058655     18.188353      139.89983    
    723000   1.00329        18.711842      139.88948    
    724000   1.0032014      18.5048        140.01081    
    725000   0.95593762     18.226098      140.02129    
    726000   1.0057576      18.997328      139.97264    
    727000   0.96961222     18.400769      140.12673    
    728000   0.96556592     18.399704      140.33595    
    729000   0.99626583     18.585059      140.45823    
    730000   1.0036411      18.198718      140.78793    
    731000   0.95894719     18.285774      141.19369    
    732000   1.0261677      19.037715      140.85975    
    733000   0.97823154     18.594925      140.88482    
    734000   1.0184501      18.889747      140.70467    
    735000   0.96578389     18.320558      140.70991    
    736000   1.011729       19.044024      140.61106    
    737000   0.99046864     18.530786      140.48977    
    738000   1.0272353      18.111163      140.55763    
    739000   1.0247913      18.432444      140.51474    
    740000   1.0356072      18.230833      140.4376     
    741000   1.0035667      18.581843      140.13167    
    742000   0.9511354      18.610628      140.16223    
    743000   0.98926118     18.748871      139.96136    
    744000   0.96766768     18.532607      139.74928    
    745000   1.006418       18.623555      139.73078    
    746000   0.96806297     18.106842      139.68586    
    747000   0.98130763     18.146116      139.73503    
    748000   0.99023894     18.962235      139.76562    
    749000   0.96160617     18.665697      139.49389    
    750000   0.9488005      17.765872      139.36322    
    751000   1.0002894      18.728154      139.43371    
    752000   0.97325085     18.530967      139.24161    
    753000   0.95933143     18.491768      139.45159    
    754000   0.98655982     18.18602       139.31981    
    755000   0.99582411     18.676654      139.20146    
    756000   0.96937852     18.667291      139.06687    
    757000   0.94149064     18.342995      138.80857    
    758000   0.98886459     18.743479      138.56099    
    759000   1.0269622      18.207377      138.29047    
    760000   0.97656218     18.210189      138.319      
    761000   1.0204946      18.513378      137.96905    
    762000   1.0248941      18.07782       137.98364    
    763000   1.0039997      18.88554       137.88695    
    764000   0.9256965      18.288703      138.10627    
    765000   1.001375       18.275395      138.03224    
    766000   1.0695472      19.210836      137.92086    
    767000   0.97355139     18.316422      138.12593    
    768000   1.0157118      18.759133      137.8623     
    769000   1.006006       18.402239      137.82684    
    770000   0.98873588     18.647109      137.59732    
    771000   1.0085972      17.830991      137.34972    
    772000   1.0033575      18.615948      137.1853     
    773000   0.98513104     18.104931      137.21394    
    774000   1.0180458      18.12383       137.0835     
    775000   0.97906986     19.015767      136.73906    
    776000   1.0116385      18.382925      136.75732    
    777000   0.99648566     18.385071      136.81688    
    778000   0.97323601     17.836253      136.97604    
    779000   1.0325724      18.855514      136.85943    
    780000   0.97860173     18.27578       136.61503    
    781000   0.97114445     17.976218      136.61338    
    782000   1.0180458      18.202667      136.64604    
    783000   0.99833123     18.125909      136.6663     
    784000   0.96668738     18.487456      136.62875    
    785000   1.0229813      18.199958      136.70436    
    786000   1.0301871      18.188111      136.89795    
    787000   0.99689998     18.355565      136.66256    
    788000   1.0245543      18.031356      136.4084     
    789000   1.0065345      18.877775      136.07177    
    790000   0.99002639     18.533256      136.0559     
    791000   0.96236538     18.398128      135.79721    
    792000   1.016197       18.367812      135.44246    
    793000   0.98526498     18.573175      135.37021    
    794000   0.96167659     17.849536      135.19632    
    795000   0.95797815     18.544356      134.9287     
    796000   1.0060518      18.720708      134.63307    
    797000   1.0098652      18.362224      134.53759    
    798000   0.97872375     18.68472       134.35365    
    799000   1.013801       18.268947      134.11015    
    800000   1.0514149      18.162651      134.07842    
    801000   0.97716153     18.374995      133.82699    
    802000   1.0055622      18.383309      133.71765    
    803000   1.029949       18.531882      133.68326    
    804000   1.034438       18.618491      133.64197    
    805000   0.9860938      18.283212      133.65123    
    806000   1.0222586      18.86444       133.97668    
    807000   0.95551306     18.391398      133.73292    
    808000   1.0033526      18.793677      133.89389    
    809000   0.99908055     19.228722      133.8682     
    810000   1.0173753      18.421265      133.64095    
    811000   0.99119872     18.347861      133.55649    
    812000   0.99303687     17.891578      133.5144     
    813000   1.0012347      18.3815        133.47273    
    814000   0.99292868     18.757617      133.30983    
    815000   1.0307555      18.696827      133.43053    
    816000   1.0258341      18.874205      133.44756    
    817000   0.97660633     18.191444      133.16279    
    818000   1.0243109      17.764677      133.19496    
    819000   0.99201044     17.936656      133.08392    
    820000   1.0327831      18.029065      132.87309    
    821000   1.0703967      18.513906      132.80877    
    822000   1.0247708      18.456515      132.95312    
    823000   0.96707116     17.76776       132.79171    
    824000   1.0266207      18.095932      132.70602    
    825000   0.97327595     18.638553      132.3931     
    826000   0.96058312     18.174271      132.34137    
    827000   0.98696475     18.465076      132.01309    
    828000   0.94105771     18.163481      131.90346    
    829000   0.95994379     17.885784      132.03414    
    830000   1.04502        18.304771      132.12484    
    831000   0.98248988     17.856319      132.06418    
    832000   0.99680399     18.182934      132.00093    
    833000   1.0082         18.293902      131.81967    
    834000   1.0106252      18.688966      131.53772    
    835000   1.0374295      18.190578      131.53989    
    836000   0.96831069     18.459088      131.46543    
    837000   1.0017495      18.383198      131.49729    
    838000   0.98007912     18.324239      131.4848     
    839000   0.96020838     17.736073      131.59402    
    840000   1.0343046      17.853246      131.54938    
    841000   0.97148627     18.158587      131.50372    
    842000   1.0091704      18.000666      131.3866     
    843000   1.0036398      18.699561      131.28781    
    844000   1.0116555      18.426499      131.29055    
    845000   0.99915202     18.45309       131.23873    
    846000   1.026078       18.355377      131.07126    
    847000   0.97645036     18.331203      131.00392    
    848000   1.0086955      18.346429      131.02452    
    849000   1.0161595      18.539572      130.66315    
    850000   0.96907465     18.414347      130.72249    
    851000   0.9870669      18.416239      130.77734    
    852000   0.9629711      18.230395      130.52824    
    853000   0.99988643     18.595144      130.36283    
    854000   1.0106299      17.950563      130.42488    
    855000   0.97825907     18.285944      130.3244     
    856000   1.0173441      18.786791      130.12711    
    857000   1.05751        18.110434      130.00066    
    858000   1.0237712      18.627068      129.82012    
    859000   1.0077191      18.386898      129.4508     
    860000   0.93325615     18.80885       129.43932    
    861000   1.0051957      18.407325      129.48223    
    862000   0.98181597     17.876914      129.11491    
    863000   0.97837417     18.497425      129.37022    
    864000   1.0049011      19.109354      129.32395    
    865000   1.0412656      18.496487      129.06892    
    866000   1.0323153      18.473371      128.95353    
    867000   0.97522049     18.081796      129.00199    
    868000   1.0234391      19.015734      129.07975    
    869000   0.99460893     18.434665      128.64424    
    870000   0.97718877     18.604067      128.67749    
    871000   0.99845646     18.065263      128.5425     
    872000   1.0154278      18.083102      128.74833    
    873000   1.0412275      18.7229        128.79054    
    874000   1.0436244      18.989638      128.90211    
    875000   1.0140338      18.778734      128.87583    
    876000   0.9860386      18.435567      128.87867    
    877000   1.01993        18.004726      128.58077    
    878000   0.99321128     18.900474      128.60844    
    879000   0.96932445     18.195255      128.31213    
    880000   0.9763569      18.529657      128.09757    
    881000   0.99006945     18.610832      127.97699    
    882000   0.99043318     18.421526      127.81856    
    883000   1.0457739      18.934507      127.7054     
    884000   0.98500659     18.756977      127.9269     
    885000   0.95239572     17.836541      127.97308    
    886000   0.99691469     18.267287      127.92416    
    887000   0.9791613      18.146818      127.9917     
    888000   0.99329256     18.475909      127.86708    
    889000   0.9907749      18.404517      128.0424     
    890000   1.0119452      19.249465      128.1359     
    891000   0.98883879     18.559477      128.08324    
    892000   0.99765825     18.156227      128.03495    
    893000   1.1016858      18.605761      128.14109    
    894000   1.0287296      18.232268      128.002      
    895000   0.99163392     17.864992      127.88346    
    896000   0.99122881     19.281281      127.64275    
    897000   0.99647412     19.136323      127.18449    
    898000   1.0100777      18.495301      127.16219    
    899000   0.96935867     18.019137      126.95361    
    900000   1.0473779      18.601711      127.02576    
    901000   0.98795963     17.907737      126.86589    
    902000   0.99023316     18.600423      126.84624    
    903000   0.97394211     18.342823      126.86622    
    904000   1.0003162      18.313653      126.61024    
    905000   1.0164828      18.300618      126.32808    
    906000   0.9824677      17.815978      126.17642    
    907000   0.98260847     18.255901      126.04784    
    908000   1.0573207      18.527525      125.93423    
    909000   0.96602951     18.664548      125.68386    
    910000   0.97758632     18.654285      125.41066    
    911000   0.96177239     18.40655       125.28498    
    912000   0.9729394      17.765774      125.09975    
    913000   1.0121248      18.557374      125.11929    
    914000   1.0013889      19.205005      124.90961    
    915000   0.98557847     18.595866      124.91601    
    916000   0.98489419     18.009916      124.70037    
    917000   1.0049632      18.448707      124.62679    
    918000   1.0082461      18.266935      124.41059    
    919000   0.99409539     18.156656      124.42122    
    920000   1.0573576      17.838183      124.1614     
    921000   0.98723506     18.015546      124.09916    
    922000   0.98536598     18.376468      123.9521     
    923000   1.0266336      18.475654      123.69631    
    924000   1.0103162      18.048548      123.37322    
    925000   1.0064127      18.204752      123.34932    
    926000   1.0024356      17.985596      123.39791    
    927000   0.9785749      18.095163      123.4103     
    928000   0.99623768     18.660551      123.31757    
    929000   1.0021431      18.901289      123.16491    
    930000   0.99287082     18.062104      123.03405    
    931000   1.0256431      18.253052      122.79802    
    932000   1.000703       18.241559      122.81373    
    933000   1.0100614      18.074056      122.73541    
    934000   1.0392649      18.353078      122.44906    
    935000   0.95115547     18.629497      122.62573    
    936000   0.94818245     18.658169      122.39247    
    937000   1.0102534      18.118457      122.5447     
    938000   1.0343336      18.809987      122.43337    
    939000   1.0416383      19.384684      122.44344    
    940000   1.0037267      18.560736      122.4979     
    941000   1.0108184      18.407616      122.47339    
    942000   1.0501779      18.48296       122.47847    
    943000   0.98582849     18.685901      122.31782    
    944000   1.0327206      18.331676      122.1613     
    945000   0.9705322      18.536108      122.09696    
    946000   1.0093344      18.823651      122.12224    
    947000   0.9971335      18.381109      122.20648    
    948000   0.97161942     18.07651       122.22803    
    949000   1.0401336      18.210874      121.98093    
    950000   0.98072936     18.142992      121.74865    
    951000   0.99200477     18.307493      121.55185    
    952000   1.0086331      18.146059      121.74112    
    953000   1.0263718      18.858092      121.40394    
    954000   0.94292912     18.478647      121.36949    
    955000   1.0366621      18.755619      121.30915    
    956000   0.97707915     18.390269      121.25728    
    957000   1.0142175      18.640761      121.18891    
    958000   1.0237982      18.464402      120.95568    
    959000   0.99767926     18.868201      120.96843    
    960000   0.95926742     18.318488      120.65809    
    961000   1.0155037      18.035509      120.56172    
    962000   1.0010975      18.561069      120.18699    
    963000   1.0025728      18.14902       120.30196    
    964000   0.99357486     17.957743      120.1097     
    965000   0.97233381     18.056427      120.06788    
    966000   1.0176128      18.289499      119.73755    
    967000   0.97751081     17.558928      119.46872    
    968000   0.98449805     18.51576       119.41569    
    969000   1.0065462      18.434563      119.54103    
    970000   0.98342346     18.366821      119.68268    
    971000   0.99377745     18.28036       119.50146    
    972000   0.98286019     18.374754      119.70945    
    973000   0.97402227     18.864242      119.48409    
    974000   0.9944919      17.921305      119.60725    
    975000   1.0329456      18.839598      119.57537    
    976000   0.9563026      18.641178      119.34296    
    977000   1.0176239      18.021469      119.49938    
    978000   1.018618       18.362574      119.63359    
    979000   0.99894784     18.588494      119.53308    
    980000   1.0269733      18.548714      119.1842     
    981000   0.94976089     18.179064      119.22517    
    982000   1.0230966      18.521584      118.82574    
    983000   0.95085324     18.437063      118.66988    
    984000   0.97236865     18.184391      118.48289    
    985000   1.0320889      18.683637      118.31915    
    986000   0.98546086     17.97098       118.16562    
    987000   0.99839143     18.394397      118.17852    
    988000   1.0344176      18.391385      118.0688     
    989000   0.98563802     18.714415      117.92225    
    990000   1.0125929      18.386398      117.61739    
    991000   0.95061175     18.242519      117.37628    
    992000   0.99578216     18.470456      117.50503    
    993000   1.0043358      17.875133      117.51578    
    994000   1.026549       18.495803      117.47223    
    995000   1.0682933      18.473878      117.44047    
    996000   1.0652029      18.240065      117.39835    
    997000   0.9690102      18.187542      117.33151    
    998000   0.98392446     18.340628      117.31689    
    999000   1.0354712      19.133896      117.15623    
   1000000   1.0093086      18.034416      117.19448    
   1001000   0.99884145     18.068274      117.11836    
   1002000   0.98775043     18.207417      117.24984    
   1003000   0.97218124     17.910172      117.24157    
   1004000   0.97666442     18.332044      117.12577    
   1005000   0.99780976     18.256814      117.12124    
   1006000   0.97646342     19.081864      116.91444    
   1007000   1.0106579      17.974536      116.74342    
   1008000   0.98010106     17.50397       116.67289    
   1009000   0.99382702     17.446107      116.87973    
   1010000   0.96164238     18.215712      116.83455    
   1011000   1.0252352      18.43234       116.92253    
   1012000   0.99745821     18.112951      116.77101    
   1013000   0.98193025     18.535238      116.60166    
   1014000   0.96079854     18.230729      116.50539    
   1015000   1.0321565      18.408583      116.48794    
   1016000   1.0010369      18.060837      116.34602    
   1017000   0.98785593     18.610914      116.27396    
   1018000   1.037827       18.038467      116.34637    
   1019000   1.0304808      18.116958      116.37844    
   1020000   0.99781237     17.690306      116.263      
   1021000   0.98345418     18.813895      116.07611    
   1022000   0.99271699     18.067545      115.91797    
   1023000   1.0574385      17.859754      116.12384    
   1024000   1.0128345      18.74823       116.01623    
   1025000   0.96007455     18.218818      116.0049     
   1026000   0.9894735      17.846588      115.89105    
   1027000   1.0279112      18.297604      115.69022    
   1028000   0.97498416     17.941597      115.55624    
   1029000   0.99324499     17.759468      115.3479     
   1030000   1.019127       18.682933      115.57702    
   1031000   0.9765543      18.033257      115.44315    
   1032000   0.97215034     18.091167      115.36898    
   1033000   1.0049637      18.252281      115.30217    
   1034000   1.0024045      18.669648      115.28826    
   1035000   1.0230412      18.566911      115.22869    
   1036000   1.013434       18.288569      115.18504    
   1037000   0.98704493     18.24193       115.21755    
   1038000   1.0373288      18.198851      115.11981    
   1039000   1.0030979      18.320603      114.92787    
   1040000   1.002935       17.922866      114.70033    
   1041000   1.026337       18.897696      114.58699    
   1042000   0.97815505     18.366084      114.66315    
   1043000   1.0045094      18.030101      114.32248    
   1044000   0.97319297     18.158394      113.97989    
   1045000   1.0359743      18.459482      113.6248     
   1046000   1.0172095      18.094667      113.49592    
   1047000   1.004837       17.966796      113.3875     
   1048000   0.96667764     17.917855      113.3176     
   1049000   0.98973976     18.188142      113.27313    
   1050000   1.0281942      18.260222      113.15916    
   1051000   1.0376541      18.412869      113.10645    
   1052000   1.0492232      17.984886      112.94368    
   1053000   1.014627       17.545264      112.86781    
   1054000   1.0048436      18.416267      112.66284    
   1055000   1.0167923      18.211627      112.44325    
   1056000   1.047749       18.119843      112.59241    
   1057000   0.96202322     18.874581      112.45776    
   1058000   0.99380594     17.871474      112.43281    
   1059000   1.0123349      18.563565      112.0818     
   1060000   0.99308917     18.206873      112.08333    
   1061000   1.030993       18.22591       112.04624    
   1062000   1.0442679      18.688627      112.13923    
   1063000   0.97298719     18.269185      111.91088    
   1064000   1.0330161      17.866877      111.61499    
   1065000   1.023616       18.577628      111.58767    
   1066000   1.0008115      18.001665      111.42724    
   1067000   0.96647054     17.873542      111.60657    
   1068000   1.0066016      18.378706      111.44503    
   1069000   0.99988317     17.424878      111.42254    
   1070000   1.0382512      18.110004      111.46008    
   1071000   1.0501011      17.793235      111.28914    
   1072000   0.98646673     18.063441      111.08727    
   1073000   1.0232128      18.411318      110.97467    
   1074000   1.0556715      18.317333      110.95757    
   1075000   0.95906259     18.109044      110.76885    
   1076000   1.0185711      18.208616      110.56643    
   1077000   0.9881174      17.91469       110.3422     
   1078000   1.029559       17.996652      110.08849    
   1079000   1.0100741      18.006534      110.22387    
   1080000   1.0046819      18.54207       109.89711    
   1081000   0.9958239      18.364553      109.60229    
   1082000   0.9775096      18.094447      109.57387    
   1083000   0.99501756     17.938669      109.59895    
   1084000   0.99686024     17.69239       109.25862    
   1085000   0.96830919     18.051251      108.9932     
   1086000   1.0400487      18.840593      108.95974    
   1087000   1.0280285      18.335886      108.99174    
   1088000   0.97604308     18.11573       108.74439    
   1089000   1.0559908      18.491179      108.70428    
   1090000   0.99700256     18.170727      108.75286    
   1091000   0.99031433     18.036099      108.64131    
   1092000   0.97913704     18.468574      108.66252    
   1093000   1.0064814      18.617527      108.49812    
   1094000   1.0217841      18.265506      108.57828    
   1095000   0.98018586     17.616824      108.5651     
   1096000   0.98141828     18.122321      108.53689    
   1097000   1.0149174      18.561964      108.44581    
   1098000   0.9976797      17.86811       108.1215     
   1099000   0.97727393     17.903993      107.93385    
   1100000   1.0184827      17.886587      107.62294    
   1101000   1.0339657      18.424392      107.70648    
   1102000   1.0687728      18.456513      107.47509    
   1103000   1.0188686      18.130821      107.23703    
   1104000   1.0044259      18.316924      107.13499    
   1105000   0.97615975     17.320252      107.127      
   1106000   1.018806       17.631187      106.90533    
   1107000   1.0207131      18.378462      106.71248    
   1108000   1.006997       18.048251      106.56399    
   1109000   1.0211686      18.559154      106.563      
   1110000   0.99317993     18.335994      106.50838    
   1111000   1.0390693      18.143029      106.29883    
   1112000   0.98876328     18.036218      106.4298     
   1113000   0.97030502     17.62689       106.1422     
   1114000   0.97639954     18.016384      106.26606    
   1115000   0.95626236     18.123318      106.48907    
   1116000   0.98350644     17.498268      106.6233     
   1117000   0.96968215     17.790695      106.68982    
   1118000   1.0188665      18.608989      106.73366    
   1119000   0.99573702     17.448036      106.81305    
   1120000   1.0185627      17.871432      106.85087    
   1121000   1.001614       18.193049      106.79799    
   1122000   1.0201773      18.57523       106.97174    
   1123000   0.96753384     18.164523      106.90679    
   1124000   1.034647       17.904642      106.6735     
   1125000   1.0544657      17.894308      106.48502    
   1126000   1.0422005      17.764186      106.63479    
   1127000   1.0181657      18.585436      106.40642    
   1128000   1.0240537      17.953806      106.4261     
   1129000   0.98039112     18.52425       106.17489    
   1130000   0.99183548     17.73976       105.97682    
   1131000   0.95902663     17.534405      105.80093    
   1132000   0.99725424     17.986051      105.59262    
   1133000   1.0197465      17.859347      105.45298    
   1134000   0.97075678     18.157693      105.45627    
   1135000   0.99806227     18.090192      105.30858    
   1136000   1.0519654      18.363207      105.18273    
   1137000   1.0388056      18.383156      105.21169    
   1138000   1.0280775      17.672715      105.37782    
   1139000   0.99750604     17.986091      105.5775     
   1140000   1.0525918      18.485202      105.51292    
   1141000   1.0158292      18.192233      105.22597    
   1142000   1.0026537      18.585964      104.90402    
   1143000   1.006044       18.13854       104.63992    
   1144000   1.0030867      18.234102      104.34207    
   1145000   1.0311609      18.299454      104.15569    
   1146000   1.0182633      17.603863      104.12257    
   1147000   1.0391536      18.186927      104.12941    
   1148000   1.0032648      17.824297      104.17995    
   1149000   1.0055829      17.992807      104.1281     
   1150000   0.97770286     17.833584      104.22547    
   1151000   0.98927886     18.169639      104.08584    
   1152000   0.97412986     18.066187      103.986      
   1153000   0.98340406     17.764071      103.83211    
   1154000   1.0277137      18.160502      103.72241    
   1155000   1.0109657      17.958058      103.85877    
   1156000   0.96177244     17.913368      103.90573    
   1157000   0.99404863     18.058876      104.04323    
   1158000   1.0261567      17.990135      103.80224    
   1159000   0.99640296     18.430304      103.80914    
   1160000   0.9952444      17.814565      103.90191    
   1161000   1.0654038      17.911376      103.67622    
   1162000   0.99446871     18.150614      103.57432    
   1163000   0.98908537     18.282719      103.36969    
   1164000   1.0984632      17.700365      103.22439    
   1165000   0.97479095     18.500154      103.2109     
   1166000   0.97220007     17.329071      103.40972    
   1167000   0.96907965     17.486718      103.22968    
   1168000   0.96020524     17.615143      103.19451    
   1169000   1.0211716      17.954457      103.01747    
   1170000   1.0076042      18.566745      102.8132     
   1171000   1.009305       17.378029      102.69326    
   1172000   1.0238729      18.723762      102.65632    
   1173000   1.0099809      18.146142      102.56287    
   1174000   0.98664498     18.182657      102.613      
   1175000   0.97426431     18.108062      102.48281    
   1176000   1.053047       18.499264      102.39589    
   1177000   1.0519041      18.015385      102.21546    
   1178000   0.98352158     18.05528       102.24025    
   1179000   0.99783986     17.980459      102.23374    
   1180000   0.96954449     17.887466      102.10772    
   1181000   0.98327085     17.776623      102.00245    
   1182000   0.99925981     18.03127       102.03139    
   1183000   0.94655469     18.011428      101.73649    
   1184000   0.97305079     18.142327      101.61891    
   1185000   0.98761565     18.53813       101.36617    
   1186000   0.98001497     17.90937       100.92265    
   1187000   0.9815295      17.972948      100.96706    
   1188000   0.99331626     18.136425      100.8323     
   1189000   1.0048102      17.83102       100.88246    
   1190000   0.99177951     17.727322      100.87802    
   1191000   0.96671149     17.951807      100.53661    
   1192000   0.99533096     17.790611      100.68606    
   1193000   1.0633824      18.011181      100.5977     
   1194000   0.97135957     17.780203      100.90729    
   1195000   1.0254129      17.68531       100.77302    
   1196000   0.99519886     18.171035      100.77618    
   1197000   0.96731526     18.479568      101.00097    
   1198000   0.97058123     17.524966      101.0127     
   1199000   1.0436342      17.772554      101.17956    
   1200000   0.99344982     18.378735      100.80516    
   1201000   1.0174952      17.609874      100.67657    
   1202000   1.0280395      17.731915      100.39124    
   1203000   1.0088879      18.0486        100.36487    
   1204000   1.0019241      18.63404       100.3969     
   1205000   0.98971012     18.190014      100.44861    
   1206000   1.0158722      17.886055      100.25369    
   1207000   1.0326053      17.963742      100.23283    
   1208000   1.026907       17.797973      99.896962    
   1209000   0.9629809      18.06441       99.785209    
   1210000   1.0276935      17.72191       99.977108    
   1211000   1.006183       17.957685      100.00918    
   1212000   0.98727025     17.687546      99.882975    
   1213000   0.9147667      18.213613      99.954331    
   1214000   0.9907399      18.205483      99.774783    
   1215000   0.98317409     18.399643      100.11043    
   1216000   0.971096       17.868491      99.93924     
   1217000   1.0064274      18.178195      99.820753    
   1218000   0.98967069     18.127815      99.777479    
   1219000   1.0162717      18.052124      99.678693    
   1220000   1.0100475      18.484525      99.444691    
   1221000   0.97482998     18.283743      99.315522    
   1222000   0.97047507     17.511084      99.406979    
   1223000   0.98472991     17.979045      99.394264    
   1224000   0.99566046     17.849652      99.509939    
   1225000   1.0393492      17.472117      99.464583    
   1226000   1.0336222      17.419204      99.699924    
   1227000   1.0197116      17.522509      99.719378    
   1228000   0.99896031     17.51269       99.74183     
   1229000   0.98771282     17.917591      99.600781    
   1230000   1.0229878      17.873224      99.558117    
   1231000   1.0079655      18.191132      99.518107    
   1232000   1.0040252      17.972553      99.431815    
   1233000   0.98112393     17.751575      99.336648    
   1234000   1.0126445      18.334772      99.392603    
   1235000   1.0508567      17.73251       99.148934    
   1236000   1.0263534      17.585977      98.783844    
   1237000   0.99412265     18.255754      98.391086    
   1238000   1.0510777      18.806004      98.144423    
   1239000   1.0472658      18.36521       97.921451    
   1240000   1.0197598      18.316932      97.849751    
   1241000   0.94271183     17.641966      97.584864    
   1242000   0.99155515     17.845577      97.725438    
   1243000   0.99323884     18.423332      97.678494    
   1244000   1.0203447      18.505463      97.419779    
   1245000   0.96680775     18.687532      97.3352      
   1246000   1.0123532      17.940314      97.366137    
   1247000   1.0553707      18.549066      97.384613    
   1248000   1.0198842      17.674004      97.165497    
   1249000   0.98770735     18.416815      97.136897    
   1250000   1.0247456      18.203174      96.987172    
   1251000   0.95825384     17.554136      96.880464    
   1252000   0.97061186     18.042876      96.773911    
   1253000   0.9897209      18.16707       96.607985    
   1254000   1.0096201      18.608269      96.644846    
   1255000   1.0545244      18.128836      96.625044    
   1256000   0.98441472     18.232297      96.511832    
   1257000   0.99555543     17.94675       96.505949    
   1258000   1.0101426      18.101819      96.328287    
   1259000   0.99258106     17.870279      96.161923    
   1260000   1.0305091      18.321577      95.822292    
   1261000   0.99216016     18.080147      95.754887    
   1262000   1.0315143      18.327663      95.636543    
   1263000   0.96497542     18.034301      95.536653    
   1264000   0.95469456     18.228294      95.500165    
[...]
   2214000   1.0248295      17.55079       23.613668    
   2215000   1.0005381      17.336496      23.581493    
   2216000   1.0351739      17.270949      23.628254    
   2217000   1.0260243      17.288471      23.586598    
   2218000   0.98696832     17.676299      23.642907    
   2219000   0.99812321     17.491668      23.414116    
   2220000   1.0226429      17.29269       23.461687    
   2221000   1.0681349      17.607213      23.326907    
   2222000   0.98336594     17.130946      23.210406    
   2223000   0.95373506     17.319489      23.082758    
   2224000   0.98923056     17.316594      23.073532    
   2225000   1.0085847      17.312574      22.889185    
   2226000   1.0024808      17.113226      22.780332    
   2227000   1.0292336      17.245011      22.595599    
   2228000   1.0135496      17.11048       22.747867    
   2229000   1.0104283      16.966304      22.721173    
   2230000   1.0163459      17.736699      22.429795    
   2231000   0.99114664     17.254626      22.273176    
   2232000   1.0348139      17.617264      22.361071    
   2233000   1.0254878      17.325756      22.272765    
   2234000   0.99451182     17.203837      21.976953    
   2235000   1.012313       17.580177      21.732453    
   2236000   1.0262666      16.91358       22.004044    
   2237000   0.97548085     17.190192      22.001755    
   2238000   1.0192814      17.153347      22.082761    
   2239000   1.0282264      17.297337      21.757667    
   2240000   1.0079046      17.399429      21.693444    
   2241000   0.97205302     17.672558      21.712898    
   2242000   0.98412513     17.596177      21.638982    
   2243000   0.98135123     16.992101      21.70716     
   2244000   1.0317236      17.523281      21.584665    
   2245000   0.96630861     17.190157      21.615847    
   2246000   1.0309022      17.142858      21.563762    
   2247000   0.94459497     17.021389      21.470088    
   2248000   1.0079931      17.45923       21.456586    
   2249000   1.0103566      17.150382      21.430652    
   2250000   1.044401       17.348077      21.48233     
   2251000   1.0132822      17.225438      21.456656    
   2252000   0.94167725     16.977242      21.335228    
   2253000   1.0120593      17.056625      21.221365    
   2254000   0.99053493     17.327746      20.897217    
   2255000   0.99198751     16.950411      20.948044    
   2256000   1.0525539      17.383891      20.625651    
   2257000   0.9792185      17.484346      20.472278    
   2258000   0.97604704     17.429852      20.473332    
   2259000   1.0381031      16.63574       20.330529    
   2260000   1.0101435      16.937186      20.359344    
   2261000   0.97009506     17.535151      20.497388    
   2262000   0.9906206      16.951887      20.310202    
   2263000   0.95674006     16.933564      20.390526    
   2264000   1.0199136      17.490088      20.291339    
   2265000   0.97728694     16.813477      20.254435    
   2266000   0.97897826     16.912117      20.295709    
   2267000   0.96058414     17.432884      20.134049    
   2268000   0.97293242     17.3617        19.989584    
   2269000   1.0167958      16.90962       20.058746    
   2270000   0.97885231     16.860605      20.031869    
   2271000   0.98672252     16.850405      20.169661    
   2272000   0.95608325     17.179889      19.879868    
   2273000   1.0674428      17.598537      19.890851    
   2274000   0.98751169     17.566011      20.044639    
   2275000   0.96724874     16.775428      20.082264    
   2276000   0.99463103     18.342495      20.078881    
   2277000   1.0306706      17.447057      20.084286    
   2278000   0.97213576     17.497343      20.240134    
   2279000   0.98821692     17.216907      20.327887    
   2280000   1.0049269      17.077046      20.343306    
   2281000   0.98530994     16.80025       20.38052     
   2282000   0.97275326     16.91992       20.320242    
   2283000   0.95174535     16.979253      20.590348    
   2284000   1.0057228      17.406584      20.472361    
   2285000   1.0328143      17.225158      20.754177    
   2286000   1.0785153      17.207725      20.704166    
   2287000   0.98297615     17.061566      20.587013    
   2288000   0.9961977      17.748435      20.502716    
   2289000   1.0240852      16.581874      20.412       
   2290000   0.99906033     16.843118      20.320744    
   2291000   0.99293049     16.621267      20.191466    
   2292000   0.98464597     17.098676      20.236334    
   2293000   0.9681556      17.309968      20.29953     
   2294000   0.97388428     16.755961      20.484807    
   2295000   1.0272575      17.042941      20.444626    
   2296000   0.94914586     17.068333      20.450131    
   2297000   1.004378       16.673965      20.205446    
   2298000   1.0348943      17.37733       20.252439    
   2299000   1.0116997      17.794516      20.062311    
   2300000   1.0128713      16.810999      20.086647    
   2301000   1.0170553      17.049256      20.201449    
   2302000   1.0716425      17.647884      20.297367    
   2303000   1.0368236      17.441633      20.295701    
   2304000   0.98859491     17.479088      20.325066    
   2305000   1.0405095      17.505932      20.225279    
   2306000   0.97193403     17.255803      20.369835    
   2307000   1.0067859      17.363903      20.165038    
   2308000   0.95553694     17.080602      20.14041     
   2309000   1.0218373      17.058496      20.038556    
   2310000   0.99424769     17.278217      19.993426    
   2311000   0.99003572     18.071405      19.818954    
   2312000   1.0117589      17.63881       19.773691    
   2313000   1.0109504      16.951443      19.67018     
   2314000   0.99906161     17.23992       19.437064    
   2315000   0.95831673     17.50494       19.354426    
   2316000   0.99082211     17.140043      19.186672    
   2317000   0.98946763     17.646894      19.171856    
   2318000   1.0008564      18.100098      19.344725    
   2319000   1.0508673      17.682772      19.309622    
   2320000   1.0014558      17.007202      19.190906    
   2321000   1.0024904      17.260214      19.201528    
   2322000   0.94435894     16.885337      19.028873    
   2323000   0.96862099     17.031418      18.780397    
   2324000   0.99510534     17.638837      18.881316    
   2325000   0.98371153     17.793702      18.720952    
   2326000   0.9760443      16.735654      18.731983    
   2327000   0.96114744     17.720828      18.434251    
   2328000   0.97638679     17.217809      18.341991    
   2329000   0.98983348     16.531131      18.236375    
   2330000   1.0002881      18.191253      18.265796    
   2331000   0.99271465     17.788737      18.1705      
   2332000   0.93273259     16.741883      18.007135    
   2333000   1.0193961      17.415055      17.695271    
   2334000   0.99485881     17.151421      17.715816    
   2335000   1.0968338      18.117694      17.535955    
   2336000   0.98092596     17.153983      17.271234    
   2337000   0.95940537     17.025892      16.92947     
   2338000   0.96876432     17.462819      16.735678    
   2339000   1.0260712      17.441712      16.722361    
   2340000   0.99034384     16.508118      16.463357    
   2341000   1.0522624      17.793073      16.475051    
   2342000   1.0451998      17.538206      16.509604    
   2343000   0.95866094     17.013258      16.445665    
   2344000   0.99548355     17.141012      16.251194    
   2345000   1.0266583      17.300746      16.055137    
   2346000   0.9676482      16.987925      15.777925    
   2347000   1.0104437      16.828062      15.740872    
   2348000   1.0113009      17.39481       15.861659    
   2349000   1.0242124      16.542717      15.590198    
   2350000   0.97388574     17.133225      15.36204     
   2351000   1.0103433      16.937075      15.531089    
   2352000   1.0103954      17.256596      15.477179    
   2353000   0.99396373     16.890857      15.308483    
   2354000   1.0225957      16.818512      15.514523    
   2355000   1.0208897      16.289631      15.582171    
   2356000   0.99637706     17.438629      15.611454    
   2357000   0.97629967     17.120785      15.617223    
   2358000   0.98756265     17.023704      15.445343    
   2359000   1.0186712      17.723972      15.097659    
   2360000   0.98716029     17.310446      14.987829    
   2361000   1.0138992      17.504693      15.076101    
   2362000   0.97207377     16.911105      14.67497     
   2363000   1.0263947      17.208857      14.53932     
   2364000   1.0259106      17.351819      14.386268    
   2365000   0.99845643     17.056392      14.251183    
   2366000   1.024044       16.946992      14.030748    
   2367000   1.0064136      18.143031      13.795146    
   2368000   0.96449942     16.322096      13.859085    
   2369000   1.0196312      17.257339      13.898381    
   2370000   1.0316366      17.663119      13.721938    
   2371000   0.95955789     16.746123      13.702377    
   2372000   0.97507779     17.567001      13.649104    
   2373000   1.0289923      17.449236      13.846484    
   2374000   0.99603894     16.802435      13.797052    
   2375000   1.013838       17.756118      13.785574    
   2376000   1.0332513      17.499116      13.67821     
   2377000   0.97826577     17.661351      13.706337    
   2378000   1.0040099      17.204232      13.772625    
   2379000   1.0109391      17.845704      13.463276    
   2380000   0.98640093     16.392259      13.423316    
   2381000   1.0224518      17.292208      13.627979    
   2382000   0.9615353      16.793169      13.618301    
   2383000   0.9676118      17.115         13.435147    
   2384000   1.0262595      17.203897      13.354018    
   2385000   0.98457886     17.054572      13.313385    
   2386000   1.0036681      17.115562      13.092371    
   2387000   0.9917566      17.260356      13.063026    
   2388000   0.98167286     17.390672      12.867406    
   2389000   1.0064545      17.343974      12.34749     
   2390000   1.0311802      17.583081      12.098359    
   2391000   1.0240682      17.563473      12.068341    
   2392000   1.027016       17.408616      12.115186    
   2393000   1.0259116      18.218347      12.07842     
   2394000   1.0193014      17.337839      12.101147    
   2395000   0.9999254      17.17765       12.139362    
   2396000   1.0315402      17.244804      12.056526    
   2397000   0.97596144     17.074427      12.036373    
   2398000   1.0411831      17.042515      11.974643    
   2399000   1.0064501      16.997777      12.145345    
   2400000   1.0575361      16.889032      12.22555     
   2401000   1.0541877      17.402332      12.297831    
   2402000   1.0403666      17.332364      12.271941    
   2403000   0.98321015     17.427205      12.080744    
   2404000   0.99224732     16.456906      12.020465    
   2405000   0.98607122     17.278991      11.933797    
   2406000   0.9969834      17.032823      11.943217    
   2407000   0.98678645     17.616674      11.735815    
   2408000   1.0301723      17.234232      11.762331    
   2409000   1.0138978      17.083795      11.547477    
   2410000   0.98506552     16.858165      11.527606    
   2411000   0.98649185     17.15003       11.518552    
   2412000   1.0001086      17.288065      11.455366    
   2413000   0.99915011     17.310032      11.282874    
   2414000   1.0143011      17.164506      11.283497    
   2415000   0.99321581     17.265232      11.449228    
   2416000   0.96902124     16.757532      11.52269     
   2417000   1.0391124      16.757026      11.409409    
   2418000   1.0116672      17.266272      11.473228    
   2419000   1.0129204      17.380945      11.303371    
   2420000   0.99170511     16.854852      11.207445    
   2421000   1.0345135      17.491357      11.179524    
   2422000   0.99440312     17.000181      11.159495    
   2423000   1.01082        17.177084      11.101258    
   2424000   1.0112693      17.059109      11.056376    
   2425000   1.0001321      16.920843      11.02904     
   2426000   0.98593799     16.926293      10.923723    
   2427000   1.0128767      17.208256      10.800065    
   2428000   0.94775263     17.374132      11.040097    
   2429000   0.98954036     17.119599      11.073718    
   2430000   0.97826539     17.136905      10.938708    
   2431000   1.0093947      16.574058      10.817877    
   2432000   1.0110099      16.55316       10.726593    
   2433000   1.0125822      16.799018      10.678158    
   2434000   0.97829642     17.387529      10.224911    
   2435000   0.94443926     16.908258      10.156854    
   2436000   0.95906119     16.942484      10.260931    
   2437000   1.0263647      17.729825      10.553482    
   2438000   1.0572221      17.333972      10.387129    
   2439000   1.02757        17.3454        10.542876    
   2440000   0.97198933     16.916643      10.664196    
   2441000   0.96749309     17.15494       10.872589    
   2442000   1.011975       16.998104      10.901581    
   2443000   0.9715578      17.316305      10.828818    
   2444000   1.0355535      16.941874      10.761048    
   2445000   1.0417464      17.022635      10.812872    
   2446000   0.98847084     16.828055      10.838352    
   2447000   0.99382801     16.753327      10.771129    
   2448000   1.0237585      16.716777      10.739078    
   2449000   1.0472906      17.525378      10.552012    
   2450000   1.0049161      16.814116      10.429758    
   2451000   0.97755667     17.392392      10.313102    
   2452000   0.93082906     17.053357      10.186089    
   2453000   1.0052232      17.252         10.265002    
   2454000   0.96744532     17.115233      10.579788    
   2455000   1.0086999      16.438027      10.489466    
   2456000   1.0023854      17.743029      10.409823    
   2457000   0.97674774     17.303549      10.276645    
   2458000   1.0256107      17.377591      10.02469     
   2459000   0.97332552     17.928995      10.001333    
   2460000   1.0028113      17.299782      9.7857821    
   2461000   1.0149147      16.934233      9.8409896    
   2462000   0.99145936     17.782973      9.607792     
   2463000   1.0079863      17.581889      9.4521606    
   2464000   1.0242987      16.780059      9.694358     
   2465000   1.0043618      16.672796      9.5446602    
   2466000   1.0407922      17.801625      9.8009628    
   2467000   1.0097109      17.840805      9.8941009    
   2468000   0.95420309     17.186707      9.6776507    
   2469000   1.0243909      16.713084      9.540744     
   2470000   1.0166539      17.202629      9.4091033    
   2471000   0.97016642     17.119795      9.4043705    
   2472000   0.95922709     16.999389      9.3411088    
   2473000   0.97304854     17.317235      9.3692454    
   2474000   0.98277632     17.738546      9.2157228    
   2475000   0.99948324     17.857927      9.2716152    
   2476000   1.0103382      17.090938      9.3055672    
   2477000   0.98274501     17.055948      9.2610432    
   2478000   0.99126214     16.744787      9.2085618    
   2479000   1.0409423      17.038235      9.1101484    
   2480000   1.0006241      17.645308      9.1617557    
   2481000   1.0335489      17.29479       9.1472141    
   2482000   1.0206653      17.050089      9.1674283    
   2483000   1.018784       17.607516      9.039807     
   2484000   1.0159101      16.47031       9.004724     
   2485000   0.99821432     17.948437      8.9757858    
   2486000   0.99436461     17.50591       8.9780708    
   2487000   0.96189175     17.732467      9.0680478    
   2488000   1.0169507      17.105875      9.0711504    
   2489000   1.0239997      16.80371       8.9686768    
   2490000   1.0062153      17.62871       8.8656053    
   2491000   0.97004442     16.849066      8.5234939    
   2492000   1.0103676      16.589736      8.4507928    
   2493000   0.95323926     17.199019      8.2385273    
   2494000   1.0076732      17.934155      8.3265756    
   2495000   0.98914473     17.051496      8.1827564    
   2496000   0.96014892     16.93453       7.9542753    
   2497000   1.0016716      16.992632      7.7459288    
   2498000   0.97333845     16.569727      7.7404235    
   2499000   0.99391323     16.979212      7.6311562    
   2500000   0.96218443     17.061462      7.4597005    
   2501000   1.0295706      17.444092      7.4361089    
   2502000   0.99881986     16.438605      7.2769849    
   2503000   0.97295758     16.612837      7.0267803    
   2504000   0.98108339     16.854074      6.7172128    
   2505000   1.0288126      17.763692      6.6535424    
   2506000   1.0342498      17.247306      6.3869273    
   2507000   1.0387747      17.116777      6.2352629    
   2508000   0.97719861     16.984997      5.9947619    
   2509000   1.062842       16.890646      5.7503438    
   2510000   0.99079721     17.210934      5.6818666    
   2511000   1.0195618      17.722422      5.5590311    
   2512000   0.99362028     17.016439      5.4557108    
   2513000   1.0043525      17.76278       5.3380333    
   2514000   1.028427       17.852547      5.2953341    
   2515000   0.9816255      16.811643      5.2997564    
   2516000   1.0078572      16.671393      5.2457103    
   2517000   0.99052856     17.16517       5.1968222    
   2518000   0.98810523     16.956462      5.0904302    
   2519000   1.0060976      16.4675        5.0742988    
   2520000   1.0340379      16.984912      5.0036729    
   2521000   0.98644971     16.464166      5.0031456    
   2522000   0.98521692     16.929156      5.0163302    
Fix halt condition for fix-id 3 met on step 2523000 with value 4.987368981786294 (src/fix_halt.cpp:237)
   2523000   0.96867577     16.8169        4.987369     
Loop time of 2635.99 on 4 procs for 2423000 steps with 900 atoms

Performance: 794189.431 tau/day, 919.201 timesteps/s
132.3% CPU use with 2 MPI tasks x 2 OpenMP threads

MPI task timing breakdown:
Section |  min time  |  avg time  |  max time  |%varavg| %total
---------------------------------------------------------------
Pair    | 116.7      | 351.5      | 586.29     |1252.4 | 13.33
Bond    | 19.429     | 32.272     | 45.116     | 226.1 |  1.22
Neigh   | 1817.9     | 1817.9     | 1817.9     |   0.0 | 68.97
Comm    | 75.404     | 321.7      | 568.01     |1373.2 | 12.20
Output  | 5.7494     | 5.8226     | 5.8958     |   3.0 |  0.22
Modify  | 33.395     | 61.345     | 89.296     | 356.9 |  2.33
Other   |            | 45.4       |            |       |  1.72

Nlocal:            450 ave         900 max           0 min
Histogram: 1 0 0 0 0 0 0 0 0 1
Nghost:            285 ave         570 max           0 min
Histogram: 1 0 0 0 0 0 0 0 0 1
Neighs:         114880 ave      229760 max           0 min
Histogram: 1 0 0 0 0 0 0 0 0 1

Total # of neighbors = 229760
Ave neighs/atom = 255.28889
Ave special neighs/atom = 1.9977778
Neighbor list builds = 22792
Dangerous builds = 0

# This simulation is done
# Move onto the next one
clear
  using 2 OpenMP thread(s) per MPI task
package omp 0
using multi-threaded neighbor list subroutines
next f
jump SELF

###
# Reference paper:
# K. Kremer and G. S. Grest
# Dynamics of entangled linear polymer melts: A molecular-dynamics simulation
# J Chem Phys 92, 5057 (1990)

##################################
# MIHIR: for branched polymers
# LJ minimum first to expand and explore, then collapse
###

###
# Looping through the various linear polymers to simulate,
# define variables to switch through
variable f index bb100nuc0bl0bn0d30tot100 bb200nuc0bl0bn0d30tot200 bb300nuc0bl0bn0d30tot300 bb400nuc0bl0bn0d30tot400 bb500nuc0bl0bn0d30tot500 bb600nuc0bl0bn0d30tot600 bb700nuc0bl0bn0d30tot700 bb800nuc0bl0bn0d30tot800 bb900nuc0bl0bn0d30tot900 bb1000nuc0bl0bn0d30tot1000 bb1100nuc0bl0bn0d30tot1100 bb1200nuc0bl0bn0d30tot1200
###


###
# Box and units  (use LJ units and periodic boundaries)
###

units lj
log linear/logs/$f.log
log linear/logs/bb1000nuc0bl0bn0d30tot1000.log
