ITEM: TIMESTEP
0
ITEM: NUMBER OF ATOMS
101
ITEM: BOX BOUNDS pp pp pp
-1.0000000000000000e+03 1.0000000000000000e+03
-1.0000000000000000e+03 1.0000000000000000e+03
-1.0000000000000000e+03 1.0000000000000000e+03
ITEM: ATOMS id x y z ix iy iz
1 0.00000 0.00000 0.00000 0 0 0
2 0.00000 0.00000 1.00000 0 0 0
3 0.00000 -0.50000 1.86603 0 0 0
4 0.00000 0.00000 2.73205 0 0 0
5 0.00000 -0.50000 3.59808 0 0 0
6 0.00000 0.00000 4.46410 0 0 0
7 0.00000 -0.50000 5.33013 0 0 0
8 0.00000 0.00000 6.19615 0 0 0
9 0.00000 -0.50000 7.06218 0 0 0
10 0.00000 0.00000 7.92820 0 0 0
11 0.00000 -0.50000 8.79423 0 0 0
12 0.00000 0.00000 9.66025 0 0 0
13 0.00000 -0.50000 10.52628 0 0 0
14 0.00000 0.00000 11.39230 0 0 0
15 0.00000 -0.50000 12.25833 0 0 0
16 0.00000 0.00000 13.12436 0 0 0
17 0.00000 -0.50000 13.99038 0 0 0
18 0.00000 0.00000 14.85641 0 0 0
19 0.00000 -0.50000 15.72243 0 0 0
20 0.00000 0.00000 16.58846 0 0 0
21 0.00000 -0.50000 17.45448 0 0 0
22 0.00000 0.00000 18.32051 0 0 0
23 0.00000 -0.50000 19.18653 0 0 0
24 0.00000 0.00000 20.05256 0 0 0
25 0.00000 -0.50000 20.91858 0 0 0
26 0.00000 0.00000 21.78461 0 0 0
27 -0.89332 -0.09369 22.22415 0 0 0
28 -1.78665 -0.39460 22.55796 0 0 0
29 -2.67997 -0.25596 22.98545 0 0 0
30 -3.57330 -0.55687 23.31926 0 0 0
31 -4.46662 -0.41824 23.74675 0 0 0
32 -5.35995 -0.71914 24.08056 0 0 0
33 -6.25327 -0.58051 24.50806 0 0 0
34 -7.14659 -0.88142 24.84186 0 0 0
35 -8.03992 -0.74279 25.26936 0 0 0
36 -8.93324 -1.04369 25.60317 0 0 0
37 -9.82657 -0.90506 26.03066 0 0 0
38 -10.71989 -1.20597 26.36447 0 0 0
39 -11.61322 -1.06734 26.79197 0 0 0
40 -12.50654 -1.36824 27.12577 0 0 0
41 -13.39986 -1.22961 27.55327 0 0 0
42 -14.29319 -1.53052 27.88708 0 0 0
43 -15.18651 -1.39189 28.31457 0 0 0
44 -16.07984 -1.69279 28.64838 0 0 0
45 -16.97316 -1.55416 29.07588 0 0 0
46 -17.86649 -1.85507 29.40968 0 0 0
47 -18.75981 -1.71644 29.83718 0 0 0
48 -19.65313 -2.01734 30.17098 0 0 0
49 -20.54646 -1.87871 30.59848 0 0 0
50 -21.43978 -2.17962 30.93229 0 0 0
51 -22.33311 -2.04098 31.35978 0 0 0
52 0.18607 0.96719 21.61165 0 0 0
53 0.37214 1.89129 21.94545 0 0 0
54 0.55821 2.64242 21.31207 0 0 0
55 0.74428 3.56652 21.64588 0 0 0
56 0.93035 4.31765 21.01249 0 0 0
57 1.11642 5.24174 21.34630 0 0 0
58 1.30249 5.99288 20.71291 0 0 0
59 1.48856 6.91697 21.04672 0 0 0
60 1.67462 7.66810 20.41333 0 0 0
61 1.86069 8.59220 20.74714 0 0 0
62 2.04676 9.34333 20.11375 0 0 0
63 2.23283 10.26742 20.44756 0 0 0
64 2.41890 11.01856 19.81417 0 0 0
65 2.60497 11.94265 20.14798 0 0 0
66 2.79104 12.69378 19.51459 0 0 0
67 2.97711 13.61788 19.84840 0 0 0
68 3.16318 14.36901 19.21501 0 0 0
69 3.34925 15.29311 19.54882 0 0 0
70 3.53532 16.04424 18.91543 0 0 0
71 3.72139 16.96833 19.24924 0 0 0
72 3.90746 17.71947 18.61585 0 0 0
73 4.09353 18.64356 18.94966 0 0 0
74 4.27960 19.39469 18.31628 0 0 0
75 4.46567 20.31879 18.65008 0 0 0
76 4.65174 21.06992 18.01670 0 0 0
77 0.70725 -0.37279 22.38529 0 0 0
78 1.41451 -0.99598 22.71910 0 0 0
79 2.12176 -1.01849 23.42570 0 0 0
80 2.82902 -1.64168 23.75950 0 0 0
81 3.53627 -1.66419 24.46610 0 0 0
82 4.24353 -2.28738 24.79991 0 0 0
83 4.95078 -2.30988 25.50651 0 0 0
84 5.65804 -2.93307 25.84032 0 0 0
85 6.36529 -2.95558 26.54692 0 0 0
86 7.07255 -3.57877 26.88072 0 0 0
87 7.77980 -3.60128 27.58732 0 0 0
88 8.48706 -4.22447 27.92113 0 0 0
89 9.19431 -4.24698 28.62773 0 0 0
90 9.90157 -4.87016 28.96154 0 0 0
91 10.60882 -4.89267 29.66814 0 0 0
92 11.31608 -5.51586 30.00195 0 0 0
93 12.02333 -5.53837 30.70855 0 0 0
94 12.73059 -6.16156 31.04235 0 0 0
95 13.43784 -6.18407 31.74895 0 0 0
96 14.14510 -6.80726 32.08276 0 0 0
97 14.85235 -6.82976 32.78936 0 0 0
98 15.55961 -7.45295 33.12317 0 0 0
99 16.26686 -7.47546 33.82977 0 0 0
100 16.97412 -8.09865 34.16357 0 0 0
101 17.68137 -8.12116 34.87017 0 0 0
ITEM: TIMESTEP
1000
ITEM: NUMBER OF ATOMS
101
ITEM: BOX BOUNDS pp pp pp
-1.0000000000000000e+03 1.0000000000000000e+03
-1.0000000000000000e+03 1.0000000000000000e+03
-1.0000000000000000e+03 1.0000000000000000e+03
ITEM: ATOMS id x y z ix iy iz
1 0.63970 -1.07513 4.90204 0 0 0
2 0.27089 -0.34165 4.43793 0 0 0
3 0.29892 0.63207 4.35297 0 0 0
4 0.56143 0.93830 5.23156 0 0 0
5 0.84684 0.43976 5.96691 0 0 0
6 1.40159 0.15034 6.73416 0 0 0
7 1.66109 0.64184 7.53614 0 0 0
8 2.12240 0.73984 8.44572 0 0 0
9 1.86591 1.05404 9.38417 0 0 0
10 1.76040 1.38122 10.27377 0 0 0
11 1.64247 1.43764 11.28594 0 0 0
12 1.23820 0.62085 11.46484 0 0 0
13 0.98653 0.80669 12.41582 0 0 0
14 0.73545 -0.01380 12.97793 0 0 0
15 0.90958 -0.15541 13.93005 0 0 0
16 0.38303 -0.66096 14.61143 0 0 0
17 0.22024 -0.69859 15.59961 0 0 0
18 0.03759 -0.64189 16.70327 0 0 0
19 0.39077 -0.23432 17.47377 0 0 0
20 0.85561 -0.94007 17.97755 0 0 0
21 0.64980 -0.85214 18.94665 0 0 0
22 0.63967 -0.38974 19.85153 0 0 0
23 0.23196 -0.92562 20.62011 0 0 0
24 0.48070 -1.11703 21.55037 0 0 0
25 0.38647 -1.37298 22.46345 0 0 0
26 0.72222 -0.50986 22.93066 0 0 0
27 -0.13617 -0.20667 23.48218 0 0 0
28 -1.12846 -0.29840 23.66223 0 0 0
29 -2.13912 -0.36706 23.61555 0 0 0
30 -3.18143 -0.21493 23.47258 0 0 0
31 -4.17667 -0.38246 23.85227 0 0 0
32 -4.93706 -1.01033 23.71881 0 0 0
33 -5.75445 -1.60561 23.98387 0 0 0
34 -6.06403 -1.40869 24.84331 0 0 0
35 -6.80899 -1.68894 25.41229 0 0 0
36 -7.44954 -2.28547 25.89044 0 0 0
37 -8.11520 -2.74102 26.36542 0 0 0
38 -8.50264 -2.71013 27.29241 0 0 0
39 -8.96135 -1.83055 27.43471 0 0 0
40 -9.87899 -1.35160 27.67930 0 0 0
41 -10.71450 -1.79098 27.97702 0 0 0
42 -11.57316 -1.30028 28.36424 0 0 0
43 -12.56411 -1.17408 28.22557 0 0 0
44 -13.06069 -0.82328 28.96238 0 0 0
45 -13.52662 -0.53450 29.80633 0 0 0
46 -14.16118 -1.20046 30.02549 0 0 0
47 -15.10535 -1.11320 30.23939 0 0 0
48 -16.03396 -0.92369 30.18569 0 0 0
49 -16.78432 -0.40838 29.82813 0 0 0
50 -17.35442 -0.95583 30.38953 0 0 0
51 -17.04209 -1.21396 31.26422 0 0 0
52 1.32738 0.17182 23.25529 0 0 0
53 2.12745 0.74721 22.98636 0 0 0
54 2.01954 1.28594 22.19819 0 0 0
55 2.30237 2.16889 21.75176 0 0 0
56 2.84822 3.01563 21.71689 0 0 0
57 3.02743 3.72315 21.12497 0 0 0
58 2.43627 4.54402 20.86105 0 0 0
59 2.81433 5.39491 20.89474 0 0 0
60 3.02215 6.26370 21.11642 0 0 0
61 3.10751 7.21739 21.08177 0 0 0
62 2.97963 8.21067 20.74570 0 0 0
63 2.84375 9.13519 20.54543 0 0 0
64 3.72454 9.45865 20.13661 0 0 0
65 3.64025 10.41469 19.81105 0 0 0
66 3.81229 11.31180 19.45920 0 0 0
67 4.00463 11.98147 20.04347 0 0 0
68 3.73980 12.90311 20.14864 0 0 0
69 3.56366 13.50103 19.46388 0 0 0
70 3.93887 14.42988 19.32464 0 0 0
71 4.60788 15.16805 19.45011 0 0 0
72 5.07421 15.68482 18.73055 0 0 0
73 4.31426 15.60238 18.16182 0 0 0
74 3.51420 16.30596 18.08479 0 0 0
75 3.16723 17.30700 18.02765 0 0 0
76 3.72385 17.95565 17.60040 0 0 0
77 1.11045 -1.22151 23.52066 0 0 0
78 1.37262 -0.88002 24.48125 0 0 0
79 1.54501 0.04768 24.68605 0 0 0
80 2.39096 -0.12843 25.08481 0 0 0
81 3.03361 -0.73263 25.48457 0 0 0
82 3.56439 -1.53336 25.21332 0 0 0
83 4.44432 -1.93999 25.20401 0 0 0
84 4.27603 -1.42775 26.03716 0 0 0
85 4.83726 -0.76180 25.65440 0 0 0
86 5.56054 -1.28601 25.97379 0 0 0
87 5.48397 -1.95923 26.65144 0 0 0
88 6.44883 -1.98410 27.17482 0 0 0
89 6.96754 -2.68485 27.67190 0 0 0
90 6.93907 -3.72239 27.61494 0 0 0
91 7.80034 -4.20812 27.67154 0 0 0
92 8.08445 -4.28723 28.57304 0 0 0
93 7.92979 -4.08183 29.51380 0 0 0
94 7.72449 -4.96655 29.79663 0 0 0
95 8.50769 -5.55609 29.72004 0 0 0
96 9.17719 -4.76736 29.74919 0 0 0
97 9.16995 -4.41425 30.64074 0 0 0
98 9.87351 -5.07631 30.69606 0 0 0
99 9.93944 -5.96163 30.34629 0 0 0
100 9.27136 -6.12490 31.05008 0 0 0
101 9.41183 -6.66499 31.80382 0 0 0
ITEM: TIMESTEP
2000
ITEM: NUMBER OF ATOMS
101
ITEM: BOX BOUNDS pp pp pp
-1.0000000000000000e+03 1.0000000000000000e+03
-1.0000000000000000e+03 1.0000000000000000e+03
-1.0000000000000000e+03 1.0000000000000000e+03
ITEM: ATOMS id x y z ix iy iz
1 -0.52981 -1.53154 6.48759 0 0 0
2 -0.29164 -2.57665 6.58213 0 0 0
3 0.46557 -2.51475 6.02714 0 0 0
4 0.93497 -2.02391 6.69147 0 0 0
5 0.99326 -1.04197 6.91010 0 0 0
6 1.32726 -0.45921 7.67263 0 0 0
7 2.02687 -0.18340 8.26486 0 0 0
8 2.13259 -0.21005 9.21884 0 0 0
9 2.34797 0.60168 9.77241 0 0 0
10 2.28156 0.19548 10.69048 0 0 0
11 2.33084 0.29847 11.67307 0 0 0
12 1.84926 0.24031 12.59160 0 0 0
13 2.04125 -0.44176 13.18291 0 0 0
14 1.38973 -0.85228 13.92445 0 0 0
15 1.05667 -1.72925 14.28522 0 0 0
16 1.40014 -1.44195 15.17029 0 0 0
17 2.07411 -1.08269 15.79640 0 0 0
18 2.39886 -1.82496 16.41483 0 0 0
19 1.79253 -2.23989 17.09670 0 0 0
20 1.19750 -1.94545 17.86022 0 0 0
21 0.45307 -1.51141 18.40377 0 0 0
22 -0.11522 -1.17272 19.14244 0 0 0
23 -0.30865 -0.30528 19.49541 0 0 0
24 -0.35765 0.19943 20.31563 0 0 0
25 0.16531 -0.24163 21.03167 0 0 0
26 0.19402 0.24830 21.85810 0 0 0
27 -0.61737 0.39891 22.36398 0 0 0
28 -1.52908 0.67323 22.59442 0 0 0
29 -2.23307 0.05977 22.25721 0 0 0
30 -2.82083 0.13580 23.07004 0 0 0
31 -3.22410 -0.23155 23.85841 0 0 0
32 -4.14876 -0.36172 23.73346 0 0 0
33 -4.89254 0.21425 23.78660 0 0 0
34 -5.74390 -0.17977 23.62343 0 0 0
35 -6.46323 -0.07144 24.30474 0 0 0
36 -6.61217 -0.62161 25.08716 0 0 0
37 -6.71202 -0.91473 26.01531 0 0 0
38 -7.61821 -1.39623 25.99322 0 0 0
39 -8.39587 -1.61211 26.61845 0 0 0
40 -8.77811 -1.89666 27.44677 0 0 0
41 -8.85423 -2.08659 28.40678 0 0 0
42 -9.75723 -1.81558 28.09159 0 0 0
43 -10.67130 -1.63974 27.74683 0 0 0
44 -11.47516 -1.16280 27.31886 0 0 0
45 -12.09032 -0.91968 28.06137 0 0 0
46 -12.98105 -0.84039 28.57098 0 0 0
47 -13.98832 -0.59193 28.86437 0 0 0
48 -14.83810 -0.42688 29.32238 0 0 0
49 -15.23836 -0.80670 30.12576 0 0 0
50 -15.53165 -1.43233 30.79213 0 0 0
51 -15.93046 -0.52614 31.07318 0 0 0
52 0.63456 1.14521 21.67802 0 0 0
53 0.89361 2.13444 21.40900 0 0 0
54 1.56725 2.80269 21.19906 0 0 0
55 2.17318 3.48415 21.54250 0 0 0
56 2.37560 4.50132 21.60923 0 0 0
57 1.81888 5.04331 20.96611 0 0 0
58 1.80689 5.60237 20.17463 0 0 0
59 2.11181 6.42142 19.69866 0 0 0
60 1.66805 7.24532 20.03078 0 0 0
61 1.41807 8.29868 20.00059 0 0 0
62 1.28018 9.22551 20.26841 0 0 0
63 1.96050 9.85638 20.35107 0 0 0
64 2.43706 10.67790 20.19789 0 0 0
65 2.98766 11.15345 19.56051 0 0 0
66 2.91297 11.95314 19.10702 0 0 0
67 3.17252 12.44207 19.84776 0 0 0
68 2.98886 13.30398 20.22594 0 0 0
69 3.55906 14.07437 20.22822 0 0 0
70 4.27633 13.79269 19.53535 0 0 0
71 5.20165 14.16177 19.52640 0 0 0
72 6.05326 14.44767 19.88476 0 0 0
73 5.86664 15.11297 19.19818 0 0 0
74 5.84904 16.04073 18.73101 0 0 0
75 5.71811 17.00011 18.65437 0 0 0
76 5.83526 17.91069 18.10094 0 0 0
77 0.45664 -0.60161 22.30192 0 0 0
78 1.03963 -0.51527 23.10943 0 0 0
79 1.59745 0.36297 23.29523 0 0 0
80 2.30923 0.45829 24.05888 0 0 0
81 2.40382 -0.50644 24.16637 0 0 0
82 3.12992 -0.97920 24.72052 0 0 0
83 3.67382 -0.29748 25.09350 0 0 0
84 4.62643 -0.45322 25.09507 0 0 0
85 4.99865 -0.30277 25.96010 0 0 0
86 4.81742 -0.53768 26.86371 0 0 0
87 4.88990 -1.44061 26.65932 0 0 0
88 5.36893 -2.29697 26.75767 0 0 0
89 5.88647 -3.10852 26.45264 0 0 0
90 6.76908 -2.81012 26.68477 0 0 0
91 7.74419 -2.99486 26.77327 0 0 0
92 7.97034 -4.09501 26.58751 0 0 0
93 7.32347 -4.11728 27.44539 0 0 0
94 7.83298 -4.54866 28.20523 0 0 0
95 8.14587 -5.03948 28.96567 0 0 0
96 7.66964 -5.47932 29.72876 0 0 0
97 6.74784 -5.49323 29.46569 0 0 0
98 6.59569 -4.54343 29.43670 0 0 0
99 7.19384 -4.45526 30.27847 0 0 0
100 6.71856 -3.60318 30.42504 0 0 0
101 6.99750 -3.33205 29.46970 0 0 0
ITEM: TIMESTEP
3000
ITEM: NUMBER OF ATOMS
101
ITEM: BOX BOUNDS pp pp pp
-1.0000000000000000e+03 1.0000000000000000e+03
-1.0000000000000000e+03 1.0000000000000000e+03
-1.0000000000000000e+03 1.0000000000000000e+03
ITEM: ATOMS id x y z ix iy iz
1 1.30847 -1.98952 10.57969 0 0 0
2 1.59656 -2.28305 9.70610 0 0 0
3 2.54085 -2.02921 10.00562 0 0 0
4 2.45121 -1.19934 9.44961 0 0 0
5 1.46639 -1.12620 9.47053 0 0 0
6 1.26483 -0.70896 10.37763 0 0 0
7 1.64676 -1.14621 11.15320 0 0 0
8 2.51469 -1.09769 11.60329 0 0 0
9 2.83680 -1.17998 12.47777 0 0 0
10 2.53854 -0.44199 13.05580 0 0 0
11 2.83548 -0.40684 14.03073 0 0 0
12 3.23488 -0.94201 14.78944 0 0 0
13 3.52467 -1.06227 15.67283 0 0 0
14 2.58692 -0.90570 15.67298 0 0 0
15 2.09653 -0.39780 16.37473 0 0 0
16 1.32267 -0.21126 16.89971 0 0 0
17 0.57070 -0.77972 17.13555 0 0 0
18 0.07797 -0.30569 17.92222 0 0 0
19 -0.45184 -0.03736 18.79536 0 0 0
20 -0.84859 -0.89999 19.05864 0 0 0
21 -0.51054 -1.50799 19.76882 0 0 0
22 -0.84111 -0.73990 20.23389 0 0 0
23 0.11212 -0.68146 20.26514 0 0 0
24 -0.31840 0.04773 20.96652 0 0 0
25 0.48463 -0.06912 21.47204 0 0 0
26 0.42837 0.24031 22.31873 0 0 0
27 -0.43264 0.68188 22.22485 0 0 0
28 -1.37984 0.83980 22.16487 0 0 0
29 -2.19264 1.25819 22.52797 0 0 0
30 -2.92946 1.39177 23.15812 0 0 0
31 -3.03121 1.35695 24.08956 0 0 0
32 -3.39599 1.11621 24.99880 0 0 0
33 -3.99896 1.12328 25.76179 0 0 0
34 -4.47996 1.14991 26.70400 0 0 0
35 -5.21840 0.51539 26.94398 0 0 0
36 -5.68481 -0.34170 26.96316 0 0 0
37 -6.63379 -0.41724 27.08373 0 0 0
38 -7.24644 -1.06090 27.50201 0 0 0
39 -7.96384 -1.68653 27.38433 0 0 0
40 -8.62630 -1.00716 27.57392 0 0 0
41 -9.31540 -0.97859 26.89738 0 0 0
42 -10.23818 -0.95749 26.42246 0 0 0
43 -11.19929 -0.74360 26.86109 0 0 0
44 -12.07143 -1.28023 26.82019 0 0 0
45 -12.31496 -1.45468 27.75711 0 0 0
46 -12.82132 -1.55083 28.59148 0 0 0
47 -12.63516 -0.64524 28.44724 0 0 0
48 -13.55485 -0.57628 28.11164 0 0 0
49 -14.22531 -0.11706 28.60324 0 0 0
50 -14.91570 -0.42507 29.24554 0 0 0
51 -14.46409 -1.07524 28.61363 0 0 0
52 0.96983 0.97745 22.29110 0 0 0
53 1.45721 1.60895 21.71525 0 0 0
54 1.70144 2.57875 21.74802 0 0 0
55 1.21770 2.62401 20.88879 0 0 0
56 0.97225 3.44772 20.29981 0 0 0
57 0.67440 4.15459 19.62310 0 0 0
58 0.99561 4.77851 18.91671 0 0 0
59 1.43005 5.17032 18.10450 0 0 0
60 2.04622 5.46743 17.52748 0 0 0
61 2.37829 5.49253 18.41534 0 0 0
62 2.36259 6.05310 19.15461 0 0 0
63 2.69449 6.33924 20.04438 0 0 0
64 3.29016 6.80934 20.61836 0 0 0
65 3.58510 7.71400 20.88801 0 0 0
66 3.56086 8.64663 21.07364 0 0 0
67 3.85189 9.48230 20.76241 0 0 0
68 4.47741 10.11524 20.25387 0 0 0
69 5.38280 10.48369 20.02421 0 0 0
70 5.31172 11.45993 19.85555 0 0 0
71 6.03983 12.13642 20.04364 0 0 0
72 6.42478 12.84027 20.55300 0 0 0
73 6.64168 13.77401 20.93240 0 0 0
74 6.65652 14.63695 20.37350 0 0 0
75 7.16468 15.06733 21.27431 0 0 0
76 7.84616 14.61649 21.77353 0 0 0
77 1.26457 -0.30290 22.56607 0 0 0
78 1.65887 0.09733 23.38775 0 0 0
79 2.33408 0.02284 24.14377 0 0 0
80 2.42241 -0.25380 25.02865 0 0 0
81 1.95921 -1.04496 25.07393 0 0 0
82 1.98086 -1.00407 24.11276 0 0 0
83 2.86642 -1.07952 23.94365 0 0 0
84 3.78820 -0.87949 24.08640 0 0 0
85 3.95229 -1.46444 24.89717 0 0 0
86 4.44897 -2.22484 25.34600 0 0 0
87 5.05442 -2.79410 24.66362 0 0 0
88 4.60912 -3.37159 25.27294 0 0 0
89 4.03231 -3.88412 25.79779 0 0 0
90 4.20393 -3.88529 26.73890 0 0 0
91 4.08615 -4.28853 27.61726 0 0 0
92 5.01849 -4.50362 27.94463 0 0 0
93 5.81667 -4.04664 27.79350 0 0 0
94 6.70333 -4.59292 27.78379 0 0 0
95 6.88837 -4.62879 28.74663 0 0 0
96 6.44552 -4.42282 29.71159 0 0 0
97 7.23351 -3.89202 29.54623 0 0 0
98 7.15685 -3.02418 29.14235 0 0 0
99 6.94637 -2.46765 29.92310 0 0 0
100 6.04993 -2.90704 29.66958 0 0 0
101 5.38296 -2.59344 30.22254 0 0 0
ITEM: TIMESTEP
4000
ITEM: NUMBER OF ATOMS
101
ITEM: BOX BOUNDS pp pp pp
-1.0000000000000000e+03 1.0000000000000000e+03
-1.0000000000000000e+03 1.0000000000000000e+03
-1.0000000000000000e+03 1.0000000000000000e+03
ITEM: ATOMS id x y z ix iy iz
1 -0.50907 -2.98824 10.70256 0 0 0
2 0.39396 -3.17662 10.87820 0 0 0
3 0.78728 -2.39436 10.40131 0 0 0
4 0.66250 -1.41620 10.14482 0 0 0
5 1.52971 -1.11026 10.57488 0 0 0
6 2.19553 -1.28780 11.22505 0 0 0
7 2.94774 -1.77356 11.65855 0 0 0
8 3.34006 -2.66794 11.92427 0 0 0
9 3.86466 -2.45015 12.73859 0 0 0
10 3.69154 -1.52272 13.21894 0 0 0
11 4.19530 -1.19978 14.01168 0 0 0
12 3.57855 -0.95594 14.81736 0 0 0
13 2.64939 -0.66162 14.76858 0 0 0
14 1.71803 -0.21300 14.79854 0 0 0
15 0.88895 -0.72690 14.92642 0 0 0
16 -0.04594 -0.72078 15.13175 0 0 0
17 -0.45228 -1.18297 16.03088 0 0 0
18 -0.66307 -1.94843 16.58932 0 0 0
19 -0.82651 -2.40594 17.42796 0 0 0
20 -0.81641 -1.58366 18.08294 0 0 0
21 -0.30812 -0.76361 18.23850 0 0 0
22 0.41016 -0.08109 18.53805 0 0 0
23 0.71014 0.48520 19.30568 0 0 0
24 1.08227 0.46210 20.16681 0 0 0
25 0.29632 -0.01845 20.35638 0 0 0
26 -0.11746 0.32847 21.28955 0 0 0
27 -0.37258 0.24662 22.27699 0 0 0
28 -1.13316 -0.05518 22.81576 0 0 0
29 -2.06294 -0.09521 22.72871 0 0 0
30 -2.50277 0.20181 21.90516 0 0 0
31 -3.45076 0.51435 21.95072 0 0 0
32 -4.12177 1.36468 21.97818 0 0 0
33 -4.91399 0.81491 22.24558 0 0 0
34 -4.73077 1.48676 23.01048 0 0 0
35 -5.28559 1.19561 23.94393 0 0 0
36 -5.85316 0.55049 24.68819 0 0 0
37 -6.45278 0.19228 25.37197 0 0 0
38 -6.87630 -0.21421 26.10280 0 0 0
39 -7.73340 -0.64098 26.31907 0 0 0
40 -8.37356 -1.18082 25.76985 0 0 0
41 -9.23885 -1.16518 26.25049 0 0 0
42 -9.70571 -0.26443 26.29448 0 0 0
43 -10.60964 0.05358 26.17039 0 0 0
44 -11.34694 -0.40608 26.72418 0 0 0
45 -12.29525 -0.28221 26.69654 0 0 0
46 -12.92146 -0.25155 27.50769 0 0 0
47 -12.85605 -0.11788 28.45380 0 0 0
48 -13.08863 -0.61611 29.21384 0 0 0
49 -13.98983 -0.31590 29.13709 0 0 0
50 -14.92996 -0.74742 29.00882 0 0 0
51 -14.88399 -1.57690 28.50205 0 0 0
52 -0.71653 1.03157 21.07326 0 0 0
53 -0.14934 1.84241 21.28934 0 0 0
54 0.54883 2.44554 21.00489 0 0 0
55 0.72475 3.37059 20.81416 0 0 0
56 1.67540 3.44657 20.65199 0 0 0
57 2.49904 3.98676 20.94187 0 0 0
58 2.51975 4.96465 21.03790 0 0 0
59 2.21664 5.61324 20.42395 0 0 0
60 2.59613 5.64291 19.51909 0 0 0
61 3.36967 5.70037 18.84621 0 0 0
62 4.20341 6.05676 18.45442 0 0 0
63 3.90109 6.70338 19.13331 0 0 0
64 3.95873 7.39847 19.81284 0 0 0
65 3.61046 7.17682 20.64327 0 0 0
66 2.80457 7.82693 20.72526 0 0 0
67 2.35772 8.49095 21.27126 0 0 0
68 3.14029 9.05081 21.30739 0 0 0
69 4.02274 8.69628 21.43894 0 0 0
70 4.90340 8.51793 21.08813 0 0 0
71 5.56166 7.85818 21.18019 0 0 0
72 6.46135 8.00609 20.74149 0 0 0
73 6.70282 8.66261 21.48020 0 0 0
74 7.15218 9.37886 22.05561 0 0 0
75 6.89218 9.94580 22.81919 0 0 0
76 6.81114 10.81044 23.20858 0 0 0
77 0.33762 -0.47689 21.50199 0 0 0
78 1.07369 0.04947 21.87073 0 0 0
79 1.88117 -0.14843 22.39511 0 0 0
80 2.70001 0.09890 22.72438 0 0 0
81 3.56759 0.12358 23.27052 0 0 0
82 3.46030 1.10194 23.72284 0 0 0
83 4.14109 1.89409 23.47052 0 0 0
84 4.36675 1.09348 24.08050 0 0 0
85 3.89533 0.72165 24.78313 0 0 0
86 4.68045 0.17165 24.72208 0 0 0
87 5.34369 -0.54766 24.84797 0 0 0
88 5.45931 -1.15674 24.06896 0 0 0
89 5.78013 -2.12828 23.79710 0 0 0
90 6.30148 -2.25091 24.72680 0 0 0
91 7.21054 -1.95411 24.81646 0 0 0
92 7.96802 -1.54020 25.19438 0 0 0
93 8.12807 -1.20223 26.11544 0 0 0
94 8.26976 -1.84320 26.77572 0 0 0
95 7.50885 -1.82011 27.35059 0 0 0
96 7.34160 -2.61217 27.93713 0 0 0
97 6.75962 -2.47310 28.89651 0 0 0
98 5.98144 -2.98468 29.56682 0 0 0
99 6.21038 -2.92842 30.50732 0 0 0
100 7.11408 -3.36125 30.26694 0 0 0
101 6.40851 -3.78733 30.90795 0 0 0
ITEM: TIMESTEP
5000
ITEM: NUMBER OF ATOMS
101
ITEM: BOX BOUNDS pp pp pp
-1.0000000000000000e+03 1.0000000000000000e+03
-1.0000000000000000e+03 1.0000000000000000e+03
-1.0000000000000000e+03 1.0000000000000000e+03
ITEM: ATOMS id x y z ix iy iz
1 -1.57304 -2.11181 12.51533 0 0 0
2 -1.10012 -1.79293 11.60638 0 0 0
3 -0.32163 -1.71139 11.10169 0 0 0
4 0.49995 -1.35294 11.00497 0 0 0
5 1.35717 -0.96005 11.25745 0 0 0
6 1.47491 -0.57672 12.16410 0 0 0
7 2.29585 -1.02196 11.93309 0 0 0
8 2.87246 -1.39063 12.65125 0 0 0
9 2.79903 -1.71574 13.59665 0 0 0
10 2.09238 -1.04294 13.63568 0 0 0
11 1.64265 -0.32026 13.19421 0 0 0
12 1.21500 -0.50511 14.03414 0 0 0
13 0.64610 -0.81451 14.79402 0 0 0
14 -0.07844 -0.92951 15.41553 0 0 0
15 -0.27653 -0.38710 16.19697 0 0 0
16 -0.43608 0.35695 16.80580 0 0 0
17 -1.07633 0.49912 17.46074 0 0 0
18 -2.01575 0.64864 17.56272 0 0 0
19 -2.01071 0.90808 18.60126 0 0 0
20 -2.19607 1.38021 19.47902 0 0 0
21 -1.83917 1.76880 20.20881 0 0 0
22 -1.21021 1.81229 19.53027 0 0 0
23 -0.44066 1.06421 19.34391 0 0 0
24 0.32268 1.13607 20.04280 0 0 0
25 0.77763 0.80114 20.86851 0 0 0
26 0.63045 0.46815 21.84768 0 0 0
27 -0.12017 -0.16359 21.61437 0 0 0
28 -0.80027 0.12669 20.94493 0 0 0
29 -1.55862 -0.28963 21.40269 0 0 0
30 -2.10816 0.44081 21.78682 0 0 0
31 -2.45717 1.29823 22.09404 0 0 0
32 -3.35923 1.33904 22.63147 0 0 0
33 -3.65240 0.98553 23.44919 0 0 0
34 -3.35798 1.21398 24.39130 0 0 0
35 -4.03015 1.95509 24.19280 0 0 0
36 -4.90295 2.38861 24.01879 0 0 0
37 -5.56865 1.83725 24.35906 0 0 0
38 -5.07910 1.62178 25.23940 0 0 0
39 -5.65170 2.35481 25.44805 0 0 0
40 -6.36889 3.04823 25.31025 0 0 0
41 -7.35025 3.15598 25.41308 0 0 0
42 -7.79497 2.32751 25.40561 0 0 0
43 -7.18388 1.68227 24.94821 0 0 0
44 -7.21215 0.75474 24.89714 0 0 0
45 -8.19183 0.94293 24.47218 0 0 0
46 -9.00386 1.18667 24.88713 0 0 0
47 -9.73219 1.34735 25.53006 0 0 0
48 -9.81623 1.91231 26.35087 0 0 0
49 -10.65504 2.13372 26.71364 0 0 0
50 -11.15670 1.49786 26.32775 0 0 0
51 -11.12353 2.23835 25.72377 0 0 0
52 0.84836 1.37087 21.76023 0 0 0
53 1.01669 2.24263 21.55311 0 0 0
54 0.26160 2.80463 21.65186 0 0 0
55 0.08210 3.59531 22.22116 0 0 0
56 0.64358 4.37325 22.30116 0 0 0
57 1.18686 5.15734 22.12220 0 0 0
58 1.45980 5.32591 21.19488 0 0 0
59 2.01184 5.66740 20.39677 0 0 0
60 2.18017 6.24867 19.68895 0 0 0
61 2.29475 7.09483 19.19464 0 0 0
62 2.99055 7.78490 19.33664 0 0 0
63 2.68253 8.08741 20.15376 0 0 0
64 2.44574 7.27808 20.59184 0 0 0
65 2.99943 7.09411 21.34371 0 0 0
66 3.63325 6.37006 21.00317 0 0 0
67 4.34150 5.76301 20.76797 0 0 0
68 4.92605 6.44776 20.98914 0 0 0
69 5.87200 6.72610 20.78222 0 0 0
70 6.83810 7.01455 20.76684 0 0 0
71 7.58394 7.05861 20.21897 0 0 0
72 8.27046 7.40799 19.61327 0 0 0
73 8.35105 8.36079 19.39772 0 0 0
74 8.35374 9.30227 19.10365 0 0 0
75 7.50817 9.71710 18.75706 0 0 0
76 6.62621 9.36704 18.60312 0 0 0
77 1.58308 0.17621 21.93469 0 0 0
78 2.41025 0.41557 22.41654 0 0 0
79 1.69965 0.05666 23.02752 0 0 0
80 2.32498 0.42448 23.64268 0 0 0
81 2.83135 1.14476 24.09864 0 0 0
82 2.87200 2.01616 23.67238 0 0 0
83 3.76476 1.70263 23.77878 0 0 0
84 4.31973 1.64415 24.53929 0 0 0
85 4.34149 1.03618 25.27121 0 0 0
86 5.06252 1.53104 25.71508 0 0 0
87 5.68905 1.90823 25.00911 0 0 0
88 6.24119 2.40439 25.73858 0 0 0
89 7.00655 2.26120 25.10783 0 0 0
90 7.14017 1.52481 25.81513 0 0 0
91 6.51907 1.34464 25.00659 0 0 0
92 6.82113 0.47366 24.71420 0 0 0
93 7.55644 0.02318 25.18079 0 0 0
94 7.53696 0.05028 26.14940 0 0 0
95 6.84686 -0.27197 26.71548 0 0 0
96 7.15642 -0.97020 26.08353 0 0 0
97 6.74057 -1.72985 26.49748 0 0 0
98 6.61150 -2.68346 26.54616 0 0 0
99 5.82736 -2.05430 26.48873 0 0 0
100 4.79310 -1.90518 26.77636 0 0 0
101 4.01107 -1.61800 26.32238 0 0 0
ITEM: TIMESTEP
6000
ITEM: NUMBER OF ATOMS
101
ITEM: BOX BOUNDS pp pp pp
-1.0000000000000000e+03 1.0000000000000000e+03
-1.0000000000000000e+03 1.0000000000000000e+03
-1.0000000000000000e+03 1.0000000000000000e+03
ITEM: ATOMS id x y z ix iy iz
1 2.56272 -6.15251 10.63595 0 0 0
2 3.06080 -5.63864 9.92444 0 0 0
3 3.00504 -4.86726 9.29243 0 0 0
4 2.73626 -4.02502 9.58359 0 0 0
5 2.82216 -4.24023 10.54456 0 0 0
6 2.87789 -3.92372 11.49468 0 0 0
7 2.35353 -4.00575 12.35244 0 0 0
8 1.99609 -3.50012 13.06347 0 0 0
9 1.22649 -2.98300 13.17727 0 0 0
10 0.38490 -2.90065 12.65840 0 0 0
11 -0.04643 -2.28878 13.28756 0 0 0
12 -0.67923 -1.63302 12.94535 0 0 0
13 -1.31324 -0.96171 12.96246 0 0 0
14 -0.93074 -1.03719 13.82223 0 0 0
15 -0.43147 -0.56699 14.57049 0 0 0
16 -0.86123 -0.25204 15.35114 0 0 0
17 -0.40697 -0.03476 16.22545 0 0 0
18 0.52905 -0.11829 16.57041 0 0 0
19 0.02315 -0.62512 17.25312 0 0 0
20 -0.67178 -0.98636 17.85070 0 0 0
21 -1.16249 -1.28100 18.64889 0 0 0
22 -0.87062 -1.47628 19.57471 0 0 0
23 -1.26972 -0.99987 20.39460 0 0 0
24 -1.21867 -0.40601 21.14092 0 0 0
25 -0.39501 0.06909 21.33993 0 0 0
26 0.05727 0.93343 21.51646 0 0 0
27 0.00277 0.74353 22.48413 0 0 0
28 -0.76467 0.84665 23.07281 0 0 0
29 -1.16591 0.18357 22.41591 0 0 0
30 -1.80891 0.42283 23.19075 0 0 0
31 -2.58317 0.29352 23.78914 0 0 0
32 -2.71706 -0.38615 24.44565 0 0 0
33 -3.15017 0.17645 25.05199 0 0 0
34 -3.12340 1.12019 25.10189 0 0 0
35 -3.97182 1.63317 25.02959 0 0 0
36 -4.67068 1.01860 24.69203 0 0 0
37 -4.86717 0.21832 24.16598 0 0 0
38 -5.87189 0.11791 24.07499 0 0 0
39 -6.28745 -0.06325 25.03202 0 0 0
40 -6.93468 -0.87596 25.13993 0 0 0
41 -7.15063 -0.70183 24.18593 0 0 0
42 -7.10471 -0.20971 23.30435 0 0 0
43 -7.83545 -0.10909 22.72424 0 0 0
44 -8.47771 0.57598 23.09791 0 0 0
45 -9.47888 0.78686 23.24003 0 0 0
46 -10.41866 1.13048 23.43814 0 0 0
47 -10.70828 1.91929 23.84139 0 0 0
48 -11.34059 2.54460 23.31985 0 0 0
49 -11.11923 1.70243 22.74474 0 0 0
50 -10.20730 1.96050 22.92546 0 0 0
51 -9.59288 2.39056 23.52022 0 0 0
52 -0.03322 0.91001 20.55134 0 0 0
53 -0.85713 1.26411 20.21481 0 0 0
54 -0.74487 2.09083 19.74091 0 0 0
55 -0.10377 2.89454 19.70468 0 0 0
56 -0.47415 3.51498 19.08849 0 0 0
57 -0.26334 4.37426 18.75410 0 0 0
58 -0.92659 4.87238 18.24133 0 0 0
59 -0.71965 5.71420 17.74191 0 0 0
60 -0.11548 6.32189 18.20177 0 0 0
61 0.11147 7.21700 17.90834 0 0 0
62 0.15859 7.43699 18.87424 0 0 0
63 0.20429 8.23845 19.45265 0 0 0
64 0.74624 8.90947 19.94951 0 0 0
65 1.66981 9.00173 19.59656 0 0 0
66 2.65657 8.95798 19.60376 0 0 0
67 3.60802 8.79592 19.47979 0 0 0
68 4.42356 8.19900 19.48739 0 0 0
69 5.20361 7.63176 19.55504 0 0 0
70 5.94134 7.00232 19.52398 0 0 0
71 6.83963 6.68039 19.36225 0 0 0
72 7.24067 7.16084 18.59862 0 0 0
73 7.81550 7.60847 17.96943 0 0 0
74 8.14647 8.08581 17.24729 0 0 0
75 7.35171 8.68011 17.19642 0 0 0
76 7.06582 9.25096 16.48441 0 0 0
77 0.87309 0.55665 21.05664 0 0 0
78 1.71724 0.76806 20.68856 0 0 0
79 2.02987 1.64489 20.83837 0 0 0
80 2.87662 1.60674 21.47973 0 0 0
81 3.08398 2.03301 22.28338 0 0 0
82 3.97697 2.36770 21.76853 0 0 0
83 4.14304 1.96222 20.86229 0 0 0
84 5.10865 1.84786 20.88121 0 0 0
85 5.20845 2.63217 21.45461 0 0 0
86 4.93341 2.58846 22.37143 0 0 0
87 5.40967 3.33942 22.74337 0 0 0
88 6.42375 3.15926 22.58985 0 0 0
89 6.77438 3.39946 23.45983 0 0 0
90 7.61419 3.16344 23.92876 0 0 0
91 7.71308 2.26224 24.12062 0 0 0
92 8.58441 1.78986 24.04571 0 0 0
93 8.21934 0.90139 24.23016 0 0 0
94 7.61991 0.11812 24.13790 0 0 0
95 7.18106 -0.37383 24.82916 0 0 0
96 6.80315 -1.18625 24.97198 0 0 0
97 6.19200 -1.81849 25.31707 0 0 0
98 6.31963 -1.61788 26.29307 0 0 0
99 5.55795 -1.00162 26.48644 0 0 0
100 4.86833 -1.12579 27.23437 0 0 0
101 4.41412 -1.88975 26.84763 0 0 0
ITEM: TIMESTEP
7000
ITEM: NUMBER OF ATOMS
101
ITEM: BOX BOUNDS pp pp pp
-1.0000000000000000e+03 1.0000000000000000e+03
-1.0000000000000000e+03 1.0000000000000000e+03
-1.0000000000000000e+03 1.0000000000000000e+03
ITEM: ATOMS id x y z ix iy iz
1 2.94745 -5.38446 8.63870 0 0 0
2 2.49551 -4.59413 9.10349 0 0 0
3 1.84418 -3.96255 9.62594 0 0 0
4 1.26418 -4.17237 10.42593 0 0 0
5 0.75328 -3.69541 11.08202 0 0 0
6 0.26851 -2.83996 11.02722 0 0 0
7 0.72080 -2.17209 10.53323 0 0 0
8 0.02902 -1.43323 10.78207 0 0 0
9 -0.93780 -1.36307 10.67881 0 0 0
10 -1.02027 -0.53696 11.18199 0 0 0
11 -0.85099 -0.62212 12.21592 0 0 0
12 -1.20265 -1.50504 12.20850 0 0 0
13 -0.44421 -1.74248 12.73364 0 0 0
14 0.22219 -2.24638 13.06661 0 0 0
15 0.62125 -2.25802 14.03146 0 0 0
16 0.87854 -1.95177 14.88226 0 0 0
17 0.73108 -1.50173 15.69011 0 0 0
18 0.14285 -0.74824 16.04128 0 0 0
19 -0.17345 -0.20118 16.80396 0 0 0
20 -0.06662 -0.01879 17.72496 0 0 0
21 0.53902 -0.24573 18.44638 0 0 0
22 0.70076 0.49948 19.00985 0 0 0
23 0.13360 0.62563 19.83601 0 0 0
24 0.68852 0.37539 20.66893 0 0 0
25 0.68549 1.28088 20.96084 0 0 0
26 1.47942 1.71466 21.30042 0 0 0
27 0.66691 2.26733 21.80074 0 0 0
28 -0.18187 1.78732 22.18822 0 0 0
29 -1.05120 2.22405 22.18513 0 0 0
30 -1.58659 1.54174 22.71021 0 0 0
31 -2.61996 1.37621 22.56779 0 0 0
32 -3.57588 1.55834 22.43243 0 0 0
33 -4.20470 1.39298 21.67684 0 0 0
34 -5.13085 1.12816 21.57006 0 0 0
35 -5.99409 0.77092 21.48454 0 0 0
36 -6.60456 0.11752 20.92319 0 0 0
37 -7.28230 -0.37230 21.51366 0 0 0
38 -6.49863 -0.20250 21.97930 0 0 0
39 -5.72561 0.05357 22.48200 0 0 0
40 -6.47492 0.39973 23.08889 0 0 0
41 -6.62979 -0.04612 23.91082 0 0 0
42 -6.99117 -0.47624 24.68198 0 0 0
43 -7.38088 -1.32540 24.59788 0 0 0
44 -8.17056 -0.98154 25.01080 0 0 0
45 -8.77626 -0.93669 24.23151 0 0 0
46 -8.72440 0.03897 24.06175 0 0 0
47 -8.51017 0.92414 24.43734 0 0 0
48 -9.26179 0.78419 24.96476 0 0 0
49 -9.22107 1.82872 24.98292 0 0 0
50 -9.22087 2.00926 23.97998 0 0 0
51 -10.01052 1.53162 23.53944 0 0 0
52 1.39658 2.59075 21.01190 0 0 0
53 1.60862 3.58392 20.80002 0 0 0
54 1.15909 4.46586 20.72834 0 0 0
55 0.25785 4.37280 20.92222 0 0 0
56 -0.31731 4.14589 20.17330 0 0 0
57 -0.21675 4.52596 19.19387 0 0 0
58 0.33090 5.20685 18.76528 0 0 0
59 -0.36055 5.78940 18.53486 0 0 0
60 -0.09400 6.39137 17.79273 0 0 0
61 0.24951 7.08079 17.29417 0 0 0
62 1.07115 7.16814 16.67012 0 0 0
63 1.77498 7.55563 17.28517 0 0 0
64 2.36316 7.27497 17.99614 0 0 0
65 3.06650 7.31766 18.64088 0 0 0
66 3.76466 7.25469 19.31247 0 0 0
67 4.30434 6.58915 19.92114 0 0 0
68 5.24310 6.27849 19.93869 0 0 0
69 6.18632 6.37682 19.48179 0 0 0
70 6.86618 6.77497 18.93862 0 0 0
71 7.31445 7.53026 18.45056 0 0 0
72 7.63690 7.88650 17.62362 0 0 0
73 8.03501 8.54369 17.02418 0 0 0
74 7.62464 9.39558 16.75272 0 0 0
75 7.21420 10.19002 16.26805 0 0 0
76 6.88692 10.32503 15.33386 0 0 0
77 2.30834 1.28109 21.27370 0 0 0
78 3.03334 1.16277 21.89910 0 0 0
79 3.95452 1.34315 21.69230 0 0 0
80 3.77630 2.19188 21.22682 0 0 0
81 4.52792 2.81904 21.29374 0 0 0
82 5.10721 3.47199 20.75243 0 0 0
83 5.41906 4.16668 20.13220 0 0 0
84 6.10467 4.72270 19.77054 0 0 0
85 6.78556 4.31968 20.28437 0 0 0
86 7.38080 4.20343 21.08239 0 0 0
87 6.85520 3.35622 21.11613 0 0 0
88 6.98224 3.89028 21.90911 0 0 0
89 7.90554 3.95661 22.39082 0 0 0
90 7.97444 3.28919 23.11290 0 0 0
91 7.82934 2.83512 22.27291 0 0 0
92 7.09615 2.19127 22.58167 0 0 0
93 6.99315 2.58098 23.44289 0 0 0
94 7.70414 2.94500 24.06268 0 0 0
95 7.88309 2.25347 24.68559 0 0 0
96 7.66755 1.94630 25.64378 0 0 0
97 7.43963 0.97578 25.45277 0 0 0
98 7.02313 0.29619 25.03983 0 0 0