ITEM: TIMESTEP
0
ITEM: NUMBER OF ATOMS
301
ITEM: BOX BOUNDS pp pp pp
-1.0000000000000000e+03 1.0000000000000000e+03
-1.0000000000000000e+03 1.0000000000000000e+03
-1.0000000000000000e+03 1.0000000000000000e+03
ITEM: ATOMS id x y z ix iy iz
1 0.00000 0.00000 0.00000 0 0 0
2 0.00000 0.00000 1.00000 0 0 0
3 0.00000 -0.50000 1.86603 0 0 0
4 0.00000 0.00000 2.73205 0 0 0
5 0.00000 -0.50000 3.59808 0 0 0
6 0.00000 0.00000 4.46410 0 0 0
7 0.00000 -0.50000 5.33013 0 0 0
8 0.00000 0.00000 6.19615 0 0 0
9 0.00000 -0.50000 7.06218 0 0 0
10 0.00000 0.00000 7.92820 0 0 0
11 0.00000 -0.50000 8.79423 0 0 0
12 0.00000 0.00000 9.66025 0 0 0
13 0.00000 -0.50000 10.52628 0 0 0
14 0.00000 0.00000 11.39230 0 0 0
15 0.00000 -0.50000 12.25833 0 0 0
16 0.00000 0.00000 13.12436 0 0 0
17 0.00000 -0.50000 13.99038 0 0 0
18 0.00000 0.00000 14.85641 0 0 0
19 0.00000 -0.50000 15.72243 0 0 0
20 0.00000 0.00000 16.58846 0 0 0
21 0.00000 -0.50000 17.45448 0 0 0
22 0.00000 0.00000 18.32051 0 0 0
23 0.00000 -0.50000 19.18653 0 0 0
24 0.00000 0.00000 20.05256 0 0 0
25 0.00000 -0.50000 20.91858 0 0 0
26 0.00000 0.00000 21.78461 0 0 0
27 0.00000 -0.50000 22.65064 0 0 0
28 0.00000 0.00000 23.51666 0 0 0
29 0.00000 -0.50000 24.38269 0 0 0
30 0.00000 0.00000 25.24871 0 0 0
31 0.00000 -0.50000 26.11474 0 0 0
32 0.00000 0.00000 26.98076 0 0 0
33 0.00000 -0.50000 27.84679 0 0 0
34 0.00000 0.00000 28.71281 0 0 0
35 0.00000 -0.50000 29.57884 0 0 0
36 0.00000 0.00000 30.44486 0 0 0
37 0.00000 -0.50000 31.31089 0 0 0
38 0.00000 0.00000 32.17691 0 0 0
39 0.00000 -0.50000 33.04294 0 0 0
40 0.00000 0.00000 33.90897 0 0 0
41 0.00000 -0.50000 34.77499 0 0 0
42 0.00000 0.00000 35.64102 0 0 0
43 0.00000 -0.50000 36.50704 0 0 0
44 0.00000 0.00000 37.37307 0 0 0
45 0.00000 -0.50000 38.23909 0 0 0
46 0.00000 0.00000 39.10512 0 0 0
47 0.00000 -0.50000 39.97114 0 0 0
48 0.00000 0.00000 40.83717 0 0 0
49 0.00000 -0.50000 41.70319 0 0 0
50 0.00000 0.00000 42.56922 0 0 0
51 0.00000 -0.50000 43.43524 0 0 0
52 0.00000 0.00000 44.30127 0 0 0
53 0.00000 -0.50000 45.16730 0 0 0
54 0.00000 0.00000 46.03332 0 0 0
55 0.00000 -0.50000 46.89935 0 0 0
56 0.00000 0.00000 47.76537 0 0 0
57 0.00000 -0.50000 48.63140 0 0 0
58 0.00000 0.00000 49.49742 0 0 0
59 0.00000 -0.50000 50.36345 0 0 0
60 0.00000 0.00000 51.22947 0 0 0
61 0.00000 -0.50000 52.09550 0 0 0
62 0.00000 0.00000 52.96152 0 0 0
63 0.00000 -0.50000 53.82755 0 0 0
64 0.00000 0.00000 54.69358 0 0 0
65 0.00000 -0.50000 55.55960 0 0 0
66 0.00000 0.00000 56.42563 0 0 0
67 0.00000 -0.50000 57.29165 0 0 0
68 0.00000 0.00000 58.15768 0 0 0
69 0.00000 -0.50000 59.02370 0 0 0
70 0.00000 0.00000 59.88973 0 0 0
71 0.00000 -0.50000 60.75575 0 0 0
72 0.00000 0.00000 61.62178 0 0 0
73 0.00000 -0.50000 62.48780 0 0 0
74 0.00000 0.00000 63.35383 0 0 0
75 0.00000 -0.50000 64.21985 0 0 0
76 0.00000 0.00000 65.08588 0 0 0
77 0.00000 -0.50000 65.95191 0 0 0
78 0.00000 0.00000 66.81793 0 0 0
79 0.00000 -0.50000 67.68396 0 0 0
80 0.00000 0.00000 68.54998 0 0 0
81 0.00000 -0.50000 69.41601 0 0 0
82 0.00000 0.00000 70.28203 0 0 0
83 0.00000 -0.50000 71.14806 0 0 0
84 0.00000 0.00000 72.01408 0 0 0
85 0.00000 -0.50000 72.88011 0 0 0
86 0.00000 0.00000 73.74613 0 0 0
87 0.00000 -0.50000 74.61216 0 0 0
88 0.00000 0.00000 75.47818 0 0 0
89 0.00000 -0.50000 76.34421 0 0 0
90 0.00000 0.00000 77.21024 0 0 0
91 0.00000 -0.50000 78.07626 0 0 0
92 0.00000 0.00000 78.94229 0 0 0
93 0.00000 -0.50000 79.80831 0 0 0
94 0.00000 0.00000 80.67434 0 0 0
95 0.00000 -0.50000 81.54036 0 0 0
96 0.00000 0.00000 82.40639 0 0 0
97 0.00000 -0.50000 83.27241 0 0 0
98 0.00000 0.00000 84.13844 0 0 0
99 0.00000 -0.50000 85.00446 0 0 0
100 0.00000 0.00000 85.87049 0 0 0
101 0.00000 -0.50000 86.73651 0 0 0
102 -0.49722 -0.13593 87.52406 0 0 0
103 -0.99443 -0.21441 88.38813 0 0 0
104 -1.49165 0.49466 88.88813 0 0 0
105 -1.98887 0.41618 89.75220 0 0 0
106 -2.48608 1.12524 90.25220 0 0 0
107 -2.98330 1.04676 91.11627 0 0 0
108 -3.48052 1.75583 91.61627 0 0 0
109 -3.97773 1.67735 92.48034 0 0 0
110 -4.47495 2.38642 92.98034 0 0 0
111 -4.97217 2.30794 93.84441 0 0 0
112 -5.46938 3.01701 94.34441 0 0 0
113 -5.96660 2.93853 95.20848 0 0 0
114 -6.46382 3.64759 95.70848 0 0 0
115 -6.96103 3.56911 96.57255 0 0 0
116 -7.45825 4.27818 97.07255 0 0 0
117 -7.95547 4.19970 97.93662 0 0 0
118 -8.45268 4.90877 98.43662 0 0 0
119 -8.94990 4.83029 99.30069 0 0 0
120 -9.44712 5.53936 99.80069 0 0 0
121 -9.94434 5.46088 100.66476 0 0 0
122 -10.44155 6.16994 101.16476 0 0 0
123 -10.93877 6.09146 102.02883 0 0 0
124 -11.43599 6.80053 102.52883 0 0 0
125 -11.93320 6.72205 103.39290 0 0 0
126 -12.43042 7.43112 103.89290 0 0 0
127 -12.92764 7.35264 104.75697 0 0 0
128 -13.42485 8.06170 105.25697 0 0 0
129 -13.92207 7.98322 106.12104 0 0 0
130 -14.41929 8.69229 106.62104 0 0 0
131 -14.91650 8.61381 107.48511 0 0 0
132 -15.41372 9.32288 107.98511 0 0 0
133 -15.91094 9.24440 108.84918 0 0 0
134 -16.40815 9.95347 109.34918 0 0 0
135 -16.90537 9.87499 110.21325 0 0 0
136 -17.40259 10.58405 110.71325 0 0 0
137 -17.89980 10.50557 111.57732 0 0 0
138 -18.39702 11.21464 112.07732 0 0 0
139 -18.89424 11.13616 112.94139 0 0 0
140 -19.39145 11.84523 113.44139 0 0 0
141 -19.88867 11.76675 114.30546 0 0 0
142 -20.38589 12.47581 114.80546 0 0 0
143 -20.88310 12.39734 115.66953 0 0 0
144 -21.38032 13.10640 116.16953 0 0 0
145 -21.87754 13.02792 117.03359 0 0 0
146 -22.37475 13.73699 117.53359 0 0 0
147 -22.87197 13.65851 118.39766 0 0 0
148 -23.36919 14.36758 118.89766 0 0 0
149 -23.86640 14.28910 119.76173 0 0 0
150 -24.36362 14.99816 120.26173 0 0 0
151 -24.86084 14.91968 121.12580 0 0 0
152 -25.35805 15.62875 121.62580 0 0 0
153 -25.85527 15.55027 122.48987 0 0 0
154 -26.35249 16.25934 122.98987 0 0 0
155 -26.84970 16.18086 123.85394 0 0 0
156 -27.34692 16.88993 124.35394 0 0 0
157 -27.84414 16.81145 125.21801 0 0 0
158 -28.34135 17.52051 125.71801 0 0 0
159 -28.83857 17.44203 126.58208 0 0 0
160 -29.33579 18.15110 127.08208 0 0 0
161 -29.83301 18.07262 127.94615 0 0 0
162 -30.33022 18.78169 128.44615 0 0 0
163 -30.82744 18.70321 129.31022 0 0 0
164 -31.32466 19.41227 129.81022 0 0 0
165 -31.82187 19.33380 130.67429 0 0 0
166 -32.31909 20.04286 131.17429 0 0 0
167 -32.81631 19.96438 132.03836 0 0 0
168 -33.31352 20.67345 132.53836 0 0 0
169 -33.81074 20.59497 133.40243 0 0 0
170 -34.30796 21.30404 133.90243 0 0 0
171 -34.80517 21.22556 134.76650 0 0 0
172 -35.30239 21.93462 135.26650 0 0 0
173 -35.79961 21.85614 136.13057 0 0 0
174 -36.29682 22.56521 136.63057 0 0 0
175 -36.79404 22.48673 137.49464 0 0 0
176 -37.29126 23.19580 137.99464 0 0 0
177 -37.78847 23.11732 138.85871 0 0 0
178 -38.28569 23.82639 139.35871 0 0 0
179 -38.78291 23.74791 140.22278 0 0 0
180 -39.28012 24.45697 140.72278 0 0 0
181 -39.77734 24.37849 141.58685 0 0 0
182 -40.27456 25.08756 142.08685 0 0 0
183 -40.77177 25.00908 142.95092 0 0 0
184 -41.26899 25.71815 143.45092 0 0 0
185 -41.76621 25.63967 144.31499 0 0 0
186 -42.26342 26.34873 144.81499 0 0 0
187 -42.76064 26.27026 145.67906 0 0 0
188 -43.25786 26.97932 146.17906 0 0 0
189 -43.75507 26.90084 147.04313 0 0 0
190 -44.25229 27.60991 147.54313 0 0 0
191 -44.74951 27.53143 148.40720 0 0 0
192 -45.24672 28.24050 148.90720 0 0 0
193 -45.74394 28.16202 149.77127 0 0 0
194 -46.24116 28.87108 150.27127 0 0 0
195 -46.73837 28.79260 151.13534 0 0 0
196 -47.23559 29.50167 151.63534 0 0 0
197 -47.73281 29.42319 152.49941 0 0 0
198 -48.23002 30.13226 152.99941 0 0 0
199 -48.72724 30.05378 153.86348 0 0 0
200 -49.22446 30.76285 154.36348 0 0 0
201 -49.72168 30.68437 155.22755 0 0 0
202 0.49722 -1.36407 86.81499 0 0 0
203 0.99443 -2.15162 86.45092 0 0 0
204 1.49165 -2.86068 86.95092 0 0 0
205 1.98887 -3.64823 86.58685 0 0 0
206 2.48608 -4.35730 87.08685 0 0 0
207 2.98330 -5.14484 86.72279 0 0 0
208 3.48052 -5.85391 87.22279 0 0 0
209 3.97773 -6.64145 86.85872 0 0 0
210 4.47495 -7.35052 87.35872 0 0 0
211 4.97217 -8.13807 86.99465 0 0 0
212 5.46938 -8.84713 87.49465 0 0 0
213 5.96660 -9.63468 87.13058 0 0 0
214 6.46382 -10.34375 87.63058 0 0 0
215 6.96103 -11.13129 87.26651 0 0 0
216 7.45825 -11.84036 87.76651 0 0 0
217 7.95547 -12.62790 87.40244 0 0 0
218 8.45268 -13.33697 87.90244 0 0 0
219 8.94990 -14.12452 87.53837 0 0 0
220 9.44712 -14.83358 88.03837 0 0 0
221 9.94434 -15.62113 87.67430 0 0 0
222 10.44155 -16.33020 88.17430 0 0 0
223 10.93877 -17.11774 87.81023 0 0 0
224 11.43599 -17.82681 88.31023 0 0 0
225 11.93320 -18.61436 87.94616 0 0 0
226 12.43042 -19.32342 88.44616 0 0 0
227 12.92764 -20.11097 88.08209 0 0 0
228 13.42485 -20.82003 88.58209 0 0 0
229 13.92207 -21.60758 88.21802 0 0 0
230 14.41929 -22.31665 88.71802 0 0 0
231 14.91650 -23.10419 88.35395 0 0 0
232 15.41372 -23.81326 88.85395 0 0 0
233 15.91094 -24.60081 88.48988 0 0 0
234 16.40815 -25.30987 88.98988 0 0 0
235 16.90537 -26.09742 88.62581 0 0 0
236 17.40259 -26.80649 89.12581 0 0 0
237 17.89980 -27.59403 88.76174 0 0 0
238 18.39702 -28.30310 89.26174 0 0 0
239 18.89424 -29.09064 88.89767 0 0 0
240 19.39145 -29.79971 89.39767 0 0 0
241 19.88867 -30.58726 89.03360 0 0 0
242 20.38589 -31.29632 89.53360 0 0 0
243 20.88310 -32.08387 89.16953 0 0 0
244 21.38032 -32.79294 89.66953 0 0 0
245 21.87754 -33.58048 89.30546 0 0 0
246 22.37475 -34.28955 89.80546 0 0 0
247 22.87197 -35.07709 89.44139 0 0 0
248 23.36919 -35.78616 89.94139 0 0 0
249 23.86640 -36.57371 89.57732 0 0 0
250 24.36362 -37.28277 90.07732 0 0 0
251 24.86084 -38.07032 89.71325 0 0 0
252 25.35805 -38.77939 90.21325 0 0 0
253 25.85527 -39.56693 89.84918 0 0 0
254 26.35249 -40.27600 90.34918 0 0 0
255 26.84970 -41.06355 89.98511 0 0 0
256 27.34692 -41.77261 90.48511 0 0 0
257 27.84414 -42.56016 90.12104 0 0 0
258 28.34135 -43.26922 90.62104 0 0 0
259 28.83857 -44.05677 90.25697 0 0 0
260 29.33579 -44.76584 90.75697 0 0 0
261 29.83301 -45.55338 90.39290 0 0 0
262 30.33022 -46.26245 90.89290 0 0 0
263 30.82744 -47.05000 90.52883 0 0 0
264 31.32466 -47.75906 91.02883 0 0 0
265 31.82187 -48.54661 90.66476 0 0 0
266 32.31909 -49.25567 91.16476 0 0 0
267 32.81631 -50.04322 90.80069 0 0 0
268 33.31352 -50.75229 91.30069 0 0 0
269 33.81074 -51.53983 90.93662 0 0 0
270 34.30796 -52.24890 91.43662 0 0 0
271 34.80517 -53.03645 91.07255 0 0 0
272 35.30239 -53.74551 91.57255 0 0 0
273 35.79961 -54.53306 91.20848 0 0 0
274 36.29682 -55.24213 91.70848 0 0 0
275 36.79404 -56.02967 91.34441 0 0 0
276 37.29126 -56.73874 91.84441 0 0 0
277 37.78847 -57.52628 91.48034 0 0 0
278 38.28569 -58.23535 91.98034 0 0 0
279 38.78291 -59.02290 91.61628 0 0 0
280 39.28012 -59.73196 92.11628 0 0 0
281 39.77734 -60.51951 91.75221 0 0 0
282 40.27456 -61.22858 92.25221 0 0 0
283 40.77177 -62.01612 91.88814 0 0 0
284 41.26899 -62.72519 92.38814 0 0 0
285 41.76621 -63.51273 92.02407 0 0 0
286 42.26342 -64.22180 92.52407 0 0 0
287 42.76064 -65.00935 92.16000 0 0 0
288 43.25786 -65.71841 92.66000 0 0 0
289 43.75507 -66.50596 92.29593 0 0 0
290 44.25229 -67.21503 92.79593 0 0 0
291 44.74951 -68.00257 92.43186 0 0 0
292 45.24672 -68.71164 92.93186 0 0 0
293 45.74394 -69.49919 92.56779 0 0 0
294 46.24116 -70.20825 93.06779 0 0 0
295 46.73837 -70.99580 92.70372 0 0 0
296 47.23559 -71.70486 93.20372 0 0 0
297 47.73281 -72.49241 92.83965 0 0 0
298 48.23002 -73.20148 93.33965 0 0 0
299 48.72724 -73.98902 92.97558 0 0 0
300 49.22446 -74.69809 93.47558 0 0 0
301 49.72168 -75.48564 93.11151 0 0 0
ITEM: TIMESTEP
1000
ITEM: NUMBER OF ATOMS
301
ITEM: BOX BOUNDS pp pp pp
-1.0000000000000000e+03 1.0000000000000000e+03
-1.0000000000000000e+03 1.0000000000000000e+03
-1.0000000000000000e+03 1.0000000000000000e+03
ITEM: ATOMS id x y z ix iy iz
1 -1.70467 1.60160 4.31830 0 0 0
2 -1.23786 0.72380 4.23732 0 0 0
3 -1.05853 -0.24903 4.08706 0 0 0
4 -0.70641 -1.05366 4.42413 0 0 0
5 -0.64679 -1.18241 5.39517 0 0 0
6 -0.10381 -0.93446 6.15106 0 0 0
7 0.41041 -1.55539 6.70373 0 0 0
8 0.03803 -1.41536 7.65097 0 0 0
9 0.23196 -1.72270 8.56203 0 0 0
10 -0.61378 -1.41744 9.03171 0 0 0
11 -0.62060 -0.81986 9.81396 0 0 0
12 -0.05016 -1.45934 10.29265 0 0 0
13 0.20886 -2.08296 10.98035 0 0 0
14 0.18352 -1.76222 11.84189 0 0 0
15 0.27539 -1.47304 12.77954 0 0 0
16 0.83640 -1.74932 13.51880 0 0 0
17 1.38489 -1.38809 14.18528 0 0 0
18 1.82451 -0.99733 15.02265 0 0 0
19 1.91835 -1.15902 15.95160 0 0 0
20 1.79272 -1.56323 16.81606 0 0 0
21 1.60793 -0.98216 17.55174 0 0 0
22 1.51553 -1.02485 18.48944 0 0 0
23 0.97744 -0.87662 19.40473 0 0 0
24 0.71109 -0.63751 20.37608 0 0 0
25 0.93675 -0.40950 21.35146 0 0 0
26 0.61625 0.01800 22.21384 0 0 0
27 0.86982 0.77149 22.88988 0 0 0
28 0.95119 0.76124 23.85640 0 0 0
29 0.96594 -0.10660 24.32963 0 0 0
30 0.73447 -0.26887 25.24324 0 0 0
31 0.31674 -0.24509 26.09379 0 0 0
32 0.38291 -0.02517 27.07713 0 0 0
33 0.72575 0.51888 27.83807 0 0 0
34 1.02610 0.50228 28.77400 0 0 0
35 0.60107 0.45906 29.67185 0 0 0
36 1.09616 0.72576 30.54671 0 0 0
37 1.37895 0.77490 31.53738 0 0 0
38 0.57705 0.98534 32.12361 0 0 0
39 -0.11855 0.98850 32.79197 0 0 0
40 -0.69758 0.44206 33.47160 0 0 0
41 -0.73184 0.58146 34.42775 0 0 0
42 -0.86467 0.51419 35.36054 0 0 0
43 -0.49836 0.73626 36.15418 0 0 0
44 -0.45035 0.80745 37.15328 0 0 0
45 -0.38743 0.73875 38.08659 0 0 0
46 -0.73415 0.64649 39.04615 0 0 0
47 -0.54956 0.37341 40.01395 0 0 0
48 -0.77288 0.18431 40.99726 0 0 0
49 -0.47303 0.13134 41.90448 0 0 0
50 0.22600 -0.13489 42.59335 0 0 0
51 0.41611 -0.45773 43.52900 0 0 0
52 0.45855 0.02344 44.37573 0 0 0
53 0.17926 0.04972 45.27816 0 0 0
54 0.17251 0.15488 46.26971 0 0 0
55 0.44385 0.33661 47.27821 0 0 0
56 0.78656 0.96763 47.96946 0 0 0
57 0.67720 0.91019 48.92559 0 0 0
58 0.19176 0.64688 49.81407 0 0 0
59 -0.62968 0.13938 50.15313 0 0 0
60 -0.55533 -0.05221 51.26545 0 0 0
61 0.06302 -0.36368 52.15513 0 0 0
62 0.01701 -0.62844 53.10749 0 0 0
63 -0.26381 -0.63505 54.12709 0 0 0
64 -0.73147 -0.55263 55.13829 0 0 0
65 -0.64037 -0.66055 56.10224 0 0 0
66 -0.21025 -0.86733 56.99375 0 0 0
67 -0.59453 -0.58002 57.93328 0 0 0
68 -0.57537 -1.11955 58.87894 0 0 0
69 -0.48487 -1.38020 59.90950 0 0 0
70 -0.89137 -1.46789 60.85699 0 0 0
71 -1.50032 -1.09301 61.52143 0 0 0
72 -1.28256 -0.57143 62.33478 0 0 0
73 -0.82202 -1.12125 63.00230 0 0 0
74 -1.05726 -1.58187 63.77188 0 0 0
75 -0.22847 -1.37077 64.30639 0 0 0
76 -0.08080 -1.55237 65.27452 0 0 0
77 -0.01834 -0.97978 66.08931 0 0 0
78 -0.09577 -1.49673 66.91489 0 0 0
79 0.08642 -0.83169 67.57722 0 0 0
80 0.25546 -0.66441 68.62868 0 0 0
81 0.03621 -0.04916 69.31797 0 0 0
82 0.21637 -0.42516 70.30887 0 0 0
83 0.58624 -0.58328 71.32228 0 0 0
84 0.28567 -0.56694 72.30135 0 0 0
85 0.44080 -0.68376 73.28262 0 0 0
86 0.60152 -1.15206 74.13021 0 0 0
87 0.05907 -1.06527 74.91326 0 0 0
88 -0.03578 -0.61900 75.86450 0 0 0
89 0.12948 -0.14475 76.70767 0 0 0
90 -0.61498 -0.15716 77.31133 0 0 0
91 -0.93883 0.14885 78.19436 0 0 0
92 -0.66675 -0.27940 79.06080 0 0 0
93 -0.35242 -0.45567 80.05574 0 0 0
94 0.01955 -0.77516 81.10372 0 0 0
95 0.09826 -0.38319 82.04343 0 0 0
96 -0.40246 -0.70145 82.81590 0 0 0
97 -0.88414 -1.24786 83.52214 0 0 0
98 -0.95259 -1.45501 84.48321 0 0 0
99 -0.76760 -1.23512 85.40634 0 0 0
100 -0.45993 -1.80265 86.16308 0 0 0
101 0.07921 -2.23063 86.81308 0 0 0
102 -0.42649 -1.86885 87.50843 0 0 0
103 -0.68463 -1.43045 88.38966 0 0 0
104 -1.29948 -0.87959 88.89437 0 0 0
105 -1.25475 -0.20044 89.63645 0 0 0
106 -1.48265 0.38049 90.43953 0 0 0
107 -1.92223 0.86540 91.24200 0 0 0
108 -2.25799 1.40496 91.98886 0 0 0
109 -2.42633 1.61880 92.96105 0 0 0
110 -2.40672 2.28693 93.70484 0 0 0
111 -2.67258 2.45965 94.62029 0 0 0
112 -3.70531 2.81054 94.54626 0 0 0
113 -4.13310 3.45871 95.30289 0 0 0
114 -4.70764 3.64084 96.15638 0 0 0
115 -5.01392 4.05299 97.01601 0 0 0
116 -5.64421 4.47835 97.62428 0 0 0
117 -6.45141 4.98596 98.06293 0 0 0
118 -7.24219 5.23237 98.51094 0 0 0
119 -8.18836 5.05792 98.80689 0 0 0
120 -8.86645 4.76613 99.48085 0 0 0
121 -9.58890 5.03504 100.10708 0 0 0
122 -9.87049 5.13788 101.03700 0 0 0
123 -10.54963 5.52951 101.70089 0 0 0
124 -11.11487 5.96928 102.41637 0 0 0
125 -11.66067 6.49792 103.23955 0 0 0
126 -11.72711 7.07181 104.04282 0 0 0
127 -12.12806 7.57826 104.83749 0 0 0
128 -12.59371 7.70921 105.78297 0 0 0
129 -13.49382 7.97593 106.17836 0 0 0
130 -13.96000 8.14948 107.08121 0 0 0
131 -13.99368 8.72679 107.94511 0 0 0
132 -14.26061 9.05060 108.79916 0 0 0
133 -14.59582 9.59264 109.73472 0 0 0
134 -14.97217 9.71667 110.60858 0 0 0
135 -15.49140 10.66422 111.13411 0 0 0
136 -16.39737 10.84349 111.61169 0 0 0
137 -16.16248 10.96077 112.51542 0 0 0
138 -16.21477 11.09499 113.46183 0 0 0
139 -16.47451 11.32775 114.35682 0 0 0
140 -17.01848 11.56938 115.16038 0 0 0
141 -17.74956 12.06528 115.71023 0 0 0
142 -18.53409 12.56849 116.11306 0 0 0
143 -19.24656 12.70605 116.90391 0 0 0
144 -19.83251 13.37076 117.39968 0 0 0
145 -20.40613 13.47984 118.22265 0 0 0
146 -21.10531 13.45545 118.88128 0 0 0
147 -21.77869 13.32188 119.57232 0 0 0
148 -22.65050 13.23019 120.02745 0 0 0
149 -23.41543 13.45669 120.58864 0 0 0
150 -23.58752 13.66814 121.45923 0 0 0
151 -24.23904 13.92503 122.16198 0 0 0
152 -24.82727 14.67637 122.60238 0 0 0
153 -25.18188 14.59558 123.54375 0 0 0
154 -25.49237 14.32893 124.47809 0 0 0
155 -26.25201 15.03611 124.70570 0 0 0
156 -26.87924 15.64697 125.24251 0 0 0
157 -27.76109 16.04753 125.69327 0 0 0
158 -27.95387 15.56070 126.54507 0 0 0
159 -28.73852 15.48131 127.19798 0 0 0
160 -28.96841 16.14362 127.81619 0 0 0
161 -29.57543 16.72101 128.57114 0 0 0
162 -30.44244 17.02808 128.98248 0 0 0
163 -31.15488 17.34769 129.64077 0 0 0
164 -31.55883 17.61380 130.46501 0 0 0
165 -31.73669 18.24676 131.22472 0 0 0
166 -32.17100 18.71138 131.98177 0 0 0
167 -32.88456 19.42445 132.14715 0 0 0
168 -33.77501 19.74058 131.92643 0 0 0
169 -34.49411 19.74980 132.58342 0 0 0
170 -35.12156 19.89217 133.36565 0 0 0
171 -35.88231 20.04152 133.92369 0 0 0
172 -35.85026 20.97629 134.46891 0 0 0
173 -36.29129 20.79763 135.32353 0 0 0
174 -36.40171 21.33260 136.18510 0 0 0
175 -36.91151 21.52297 137.00539 0 0 0
176 -37.34399 22.36340 137.05142 0 0 0
177 -37.77418 22.89229 137.86876 0 0 0
178 -38.68005 23.19888 138.26114 0 0 0
179 -39.06542 23.76577 138.96715 0 0 0
180 -39.17139 23.70129 139.98481 0 0 0
181 -39.37081 24.22071 140.86326 0 0 0
182 -39.56525 24.58970 141.73662 0 0 0
183 -40.29953 25.11017 142.08451 0 0 0
184 -40.61654 25.44938 142.94105 0 0 0
185 -40.84091 26.17211 143.57442 0 0 0
186 -41.43616 26.15716 144.37793 0 0 0
187 -41.11716 26.65186 145.14654 0 0 0
188 -42.04039 26.89428 145.27458 0 0 0
189 -42.64514 26.97151 145.98052 0 0 0
190 -43.57687 26.96856 146.19468 0 0 0
191 -43.07801 27.11671 147.10199 0 0 0
192 -43.14689 26.83988 148.02859 0 0 0
193 -43.84197 27.54946 148.26476 0 0 0
194 -44.16799 28.42366 148.72383 0 0 0
195 -44.65817 28.06283 149.46872 0 0 0
196 -45.48282 27.66741 149.68342 0 0 0
197 -45.61798 28.20530 150.45940 0 0 0
198 -45.30772 28.94874 151.08165 0 0 0
199 -45.71809 29.80649 151.30873 0 0 0
200 -46.47284 29.72855 152.02398 0 0 0
201 -46.92421 30.54752 151.67598 0 0 0
202 0.89517 -2.52450 86.37015 0 0 0
203 1.39993 -3.30215 86.28398 0 0 0
204 1.64955 -4.23029 86.03064 0 0 0
205 2.50579 -4.83505 86.20259 0 0 0
206 3.02788 -5.55609 85.81366 0 0 0
207 3.95897 -5.79028 86.17379 0 0 0
208 4.86284 -6.02459 86.41164 0 0 0
209 5.20304 -6.92188 86.15682 0 0 0
210 5.10712 -7.83985 86.37581 0 0 0
211 5.73579 -8.44258 86.67465 0 0 0
212 5.91768 -9.16294 87.42049 0 0 0
213 6.77728 -9.66943 87.44850 0 0 0
214 7.59419 -10.13770 87.43210 0 0 0
215 8.30391 -10.86323 87.48408 0 0 0
216 8.83544 -11.64849 87.32344 0 0 0
217 8.70497 -12.63158 87.57702 0 0 0
218 9.24156 -13.35403 88.06435 0 0 0
219 9.66332 -14.30722 87.96081 0 0 0
220 10.05384 -15.17422 88.38880 0 0 0
221 10.12067 -15.89541 89.14334 0 0 0
222 10.78404 -16.49554 88.64457 0 0 0
223 11.25855 -17.28204 88.38399 0 0 0
224 11.86440 -18.15851 88.32843 0 0 0
225 12.47878 -18.86856 88.56725 0 0 0
226 12.81320 -19.75612 88.52125 0 0 0
227 13.53687 -20.35252 88.85278 0 0 0
228 13.84970 -21.20958 88.55143 0 0 0
229 14.03099 -22.12613 88.82767 0 0 0
230 14.33376 -23.12339 88.88214 0 0 0
231 14.86356 -23.98947 89.02715 0 0 0
232 14.91121 -25.09287 88.82501 0 0 0
233 14.87049 -25.91636 88.26524 0 0 0
234 15.58357 -26.37619 87.78601 0 0 0
235 16.46904 -26.83474 87.50831 0 0 0
236 16.77835 -27.70294 87.63732 0 0 0
237 17.47814 -28.41313 87.55711 0 0 0
238 17.80156 -28.98852 88.36480 0 0 0
239 18.74216 -29.29851 88.30307 0 0 0
240 19.16097 -29.94466 89.00477 0 0 0
241 19.42695 -30.93629 89.23937 0 0 0
242 19.51684 -31.87035 88.96294 0 0 0
243 20.36387 -32.37630 89.07737 0 0 0
244 21.09321 -32.98647 89.17080 0 0 0
245 21.45281 -33.86524 89.10155 0 0 0
246 22.44382 -34.05257 89.38882 0 0 0
247 22.49424 -34.90724 90.02137 0 0 0
248 23.07982 -35.69232 90.45368 0 0 0
249 23.82159 -36.33355 90.37064 0 0 0
250 24.74238 -36.55643 90.87676 0 0 0
251 25.59504 -36.92047 91.19311 0 0 0
252 26.21076 -37.35133 90.57333 0 0 0
253 26.53206 -38.31844 90.56865 0 0 0
254 27.21758 -38.96926 90.50672 0 0 0
255 27.47481 -39.61057 89.76222 0 0 0
256 27.64885 -40.58922 89.82564 0 0 0
257 28.18721 -41.41331 89.81341 0 0 0
258 28.19019 -42.29362 89.26068 0 0 0
259 28.97660 -42.81773 89.46644 0 0 0
260 28.91242 -43.75902 89.58978 0 0 0
261 29.58731 -44.56554 89.61590 0 0 0
262 30.38980 -45.22488 89.73818 0 0 0
263 30.64160 -46.06375 90.26543 0 0 0
264 31.15719 -46.82161 90.06476 0 0 0
265 31.71087 -47.59577 89.78737 0 0 0
266 31.95731 -48.51013 89.73673 0 0 0
267 31.79597 -49.44569 90.05160 0 0 0
268 32.37623 -50.10158 90.54113 0 0 0
269 32.85711 -50.78773 91.03865 0 0 0
270 33.46331 -51.55135 91.27339 0 0 0
271 34.05562 -52.25079 91.45799 0 0 0
272 34.44540 -53.20126 91.30170 0 0 0
273 34.71666 -54.07616 91.06449 0 0 0
274 35.56856 -54.50760 90.84572 0 0 0
275 35.87047 -55.38172 91.19523 0 0 0
276 36.13189 -55.81042 92.00833 0 0 0
277 37.09222 -55.90915 92.09345 0 0 0
278 37.55476 -56.79004 91.89033 0 0 0
279 37.77523 -57.79024 91.99484 0 0 0
280 38.05435 -58.69801 92.31613 0 0 0
281 38.48582 -59.54627 92.28035 0 0 0
282 38.99831 -60.26523 91.80851 0 0 0
283 39.85277 -60.79197 91.96115 0 0 0
284 40.53473 -61.27148 91.46354 0 0 0
285 41.24817 -61.82144 91.91691 0 0 0
286 41.45491 -62.75010 91.76854 0 0 0
287 41.81556 -63.55111 92.24072 0 0 0
288 42.33637 -64.12936 91.54407 0 0 0
289 43.10659 -64.78173 91.23036 0 0 0
290 43.75935 -65.49505 91.45256 0 0 0
291 44.12616 -66.37134 91.47369 0 0 0
292 44.57452 -66.93226 90.84561 0 0 0
293 45.29691 -67.32426 90.33214 0 0 0
294 46.04590 -67.95904 90.01912 0 0 0
295 46.05355 -68.82536 89.66401 0 0 0
296 46.36160 -69.46128 90.35483 0 0 0
297 46.78914 -70.28770 90.59072 0 0 0
298 46.48298 -71.14993 90.94571 0 0 0
299 47.26112 -71.61311 91.34661 0 0 0
300 48.21080 -71.94907 91.14114 0 0 0
301 49.05094 -72.15301 91.59273 0 0 0
ITEM: TIMESTEP
2000
ITEM: NUMBER OF ATOMS
301
ITEM: BOX BOUNDS pp pp pp
-1.0000000000000000e+03 1.0000000000000000e+03
-1.0000000000000000e+03 1.0000000000000000e+03
-1.0000000000000000e+03 1.0000000000000000e+03
ITEM: ATOMS id x y z ix iy iz
1 -0.61781 1.65377 5.79740 0 0 0
2 -0.23446 0.97002 6.27920 0 0 0
3 0.03235 1.38398 7.17872 0 0 0
4 0.31235 2.26961 7.00067 0 0 0
5 1.21052 2.52245 7.34920 0 0 0
6 1.38137 2.63348 8.28964 0 0 0
7 1.02981 2.41846 9.15166 0 0 0
8 1.44058 2.07986 9.91016 0 0 0
9 2.14746 2.03028 10.65369 0 0 0
10 1.96529 1.06397 10.74554 0 0 0
11 1.92811 0.19045 10.45610 0 0 0
12 2.11751 -0.04576 11.39988 0 0 0
13 2.39164 0.15501 12.34209 0 0 0
14 2.93559 -0.23447 13.11195 0 0 0
15 2.22317 -0.32932 13.71758 0 0 0
16 2.37212 -0.26011 14.71432 0 0 0
17 2.63930 -0.19745 15.66423 0 0 0
18 2.63590 0.04733 16.58664 0 0 0
19 1.82092 -0.33369 17.08005 0 0 0
20 1.71100 -0.44525 18.01959 0 0 0
21 1.35881 -0.74896 18.88301 0 0 0
22 1.24958 -0.77443 19.91786 0 0 0
23 0.50244 -0.23251 20.09511 0 0 0
24 0.25065 0.47774 20.70468 0 0 0
25 0.09855 0.27604 21.60849 0 0 0
26 0.38641 0.52736 22.52559 0 0 0
27 0.44818 1.06217 23.41743 0 0 0
28 0.42246 1.19339 24.46654 0 0 0
29 0.30917 0.60155 25.31911 0 0 0
30 -0.09149 -0.09838 25.87653 0 0 0
31 -0.69701 -0.07301 26.62452 0 0 0
32 -0.56994 0.26727 27.55726 0 0 0
33 -0.42555 -0.66232 27.88517 0 0 0
34 -0.06177 -0.75689 28.87809 0 0 0
35 0.10495 -0.66235 29.91513 0 0 0
36 -0.37308 -0.42175 30.78679 0 0 0
37 -0.89436 -0.24208 31.58070 0 0 0
38 -1.14175 -0.73872 32.39000 0 0 0
39 -1.81902 -0.72144 33.08024 0 0 0
40 -1.42110 -0.83299 33.88476 0 0 0
41 -1.63697 -0.89221 34.81464 0 0 0
42 -1.58011 -1.34749 35.73301 0 0 0
43 -0.82733 -1.09377 36.42655 0 0 0
44 -0.85928 -0.77787 37.33714 0 0 0
45 -1.26198 -0.17642 37.99924 0 0 0
46 -1.00312 0.22181 38.84081 0 0 0
47 -1.31843 0.50564 39.77539 0 0 0
48 -1.59775 0.94011 40.62866 0 0 0
49 -1.73394 1.22212 41.64718 0 0 0
50 -1.07764 1.65709 42.32385 0 0 0
51 -1.43834 1.46627 43.22886 0 0 0
52 -1.83828 0.51697 43.62870 0 0 0
53 -2.14466 0.18600 44.47387 0 0 0
54 -2.52875 0.04982 45.46749 0 0 0
55 -2.69584 -0.15423 46.41664 0 0 0
56 -2.21277 -0.19249 47.26163 0 0 0
57 -1.58012 -0.56368 47.93004 0 0 0
58 -1.35551 -0.01118 48.72121 0 0 0
59 -1.00047 0.11606 49.72713 0 0 0
60 -0.79588 0.26474 50.74181 0 0 0
61 -0.62661 -0.02895 51.70294 0 0 0
62 -0.89266 0.34108 52.52894 0 0 0
63 -0.85591 0.31991 53.46722 0 0 0
64 -1.25589 -0.16205 54.34902 0 0 0
65 -1.59445 -0.03287 55.25103 0 0 0
66 -0.99673 0.22236 55.96432 0 0 0
67 -0.88581 0.58669 56.93931 0 0 0
68 -1.07975 0.80715 57.89944 0 0 0
69 -0.67343 0.68025 58.82567 0 0 0
70 -0.31549 1.12779 59.74285 0 0 0
71 -0.70764 0.59474 60.52848 0 0 0
72 -0.90968 0.36859 61.45310 0 0 0
73 -1.03450 0.56593 62.47797 0 0 0
74 -0.33358 0.60668 63.19804 0 0 0
75 -0.54899 1.25279 63.86910 0 0 0
76 -0.67023 0.72348 64.65748 0 0 0
77 -0.96017 0.06346 65.40407 0 0 0
78 -0.86047 -0.30111 66.28682 0 0 0
79 -1.15106 -0.02211 67.17363 0 0 0
80 -1.37488 -0.01751 68.12915 0 0 0
81 -1.26602 0.02728 69.15067 0 0 0
82 -1.23035 0.35510 70.10381 0 0 0
83 -1.02084 0.56155 71.04962 0 0 0
84 -0.89820 0.97866 71.88241 0 0 0
85 -0.72737 1.11632 72.85570 0 0 0
86 -0.88183 0.75845 73.84321 0 0 0
87 -0.61056 0.62860 74.77583 0 0 0
88 -0.39640 0.52776 75.78835 0 0 0
89 -0.23274 0.47736 76.79008 0 0 0
90 -0.19462 0.43116 77.72989 0 0 0
91 -0.34911 0.39876 78.69643 0 0 0
92 -0.09738 0.48119 79.58692 0 0 0
93 0.10193 0.53311 80.58160 0 0 0
94 0.15520 0.33640 81.65674 0 0 0
95 0.11489 -0.04759 82.62770 0 0 0
96 -0.19498 -0.31754 83.45459 0 0 0
97 0.40354 -0.57199 84.15350 0 0 0
98 -0.22394 -1.09789 84.65383 0 0 0
99 0.34224 -1.37947 85.34406 0 0 0
100 0.16805 -1.89547 86.22842 0 0 0
101 0.05994 -2.44259 87.00195 0 0 0
102 0.06211 -2.02817 87.90967 0 0 0
103 -0.38114 -1.51461 88.62314 0 0 0
104 -0.89921 -1.06831 89.35550 0 0 0
105 -1.33692 -0.55022 90.09912 0 0 0
106 -2.18259 -0.15929 90.37352 0 0 0
107 -2.87013 0.59969 90.70617 0 0 0
108 -2.74646 1.32592 91.38355 0 0 0
109 -3.19146 1.79758 92.14040 0 0 0
110 -3.57694 2.12399 92.92776 0 0 0
111 -3.85350 2.25885 93.86818 0 0 0
112 -4.37878 2.98835 94.14940 0 0 0
113 -5.13606 3.17576 94.69313 0 0 0
114 -5.82133 3.27037 95.35367 0 0 0
115 -6.38239 3.17655 96.09545 0 0 0
116 -7.19668 3.22496 96.60714 0 0 0
117 -7.67851 3.52604 97.41410 0 0 0
118 -7.99731 4.27000 97.93728 0 0 0
119 -8.54580 4.20851 98.84653 0 0 0
120 -8.51361 4.89680 99.63869 0 0 0
121 -8.77225 4.96414 100.56623 0 0 0
122 -9.45955 5.20094 101.29621 0 0 0
123 -9.97021 5.74347 101.98715 0 0 0
124 -10.25134 6.47708 102.63652 0 0 0
125 -10.72709 6.86429 103.35541 0 0 0
126 -11.33294 7.17019 104.02197 0 0 0
127 -11.99836 7.05669 104.85788 0 0 0
128 -12.53919 7.25322 105.70134 0 0 0
129 -13.17882 7.49269 106.40913 0 0 0
130 -13.68131 7.93683 107.15812 0 0 0
131 -13.93508 8.02331 108.11548 0 0 0
132 -14.31649 8.37257 108.96232 0 0 0
133 -14.64112 8.26178 109.93232 0 0 0
134 -14.89106 8.86129 110.70652 0 0 0
135 -14.96442 9.00646 111.66462 0 0 0
136 -14.68179 9.45334 112.61277 0 0 0
137 -14.91100 9.93784 113.44954 0 0 0
138 -15.10601 9.75556 114.39367 0 0 0
139 -15.68390 10.24589 114.94338 0 0 0
140 -16.51285 10.61130 115.43374 0 0 0
141 -17.34227 10.75849 115.81824 0 0 0
142 -18.04538 10.78281 116.62460 0 0 0
143 -18.80027 10.85927 117.28424 0 0 0
144 -19.29583 10.78045 118.09254 0 0 0
145 -20.00144 10.79862 118.83579 0 0 0
146 -20.81859 11.23070 119.17176 0 0 0
147 -21.63063 11.06890 119.66676 0 0 0
148 -22.36870 11.24318 120.32231 0 0 0
149 -22.83894 11.76898 120.98713 0 0 0
150 -23.67846 12.26499 121.44033 0 0 0
151 -24.06939 12.53308 122.30804 0 0 0
152 -24.34816 12.77536 123.19917 0 0 0
153 -25.09055 13.25651 123.65778 0 0 0
154 -25.45702 13.45346 124.49220 0 0 0
155 -25.73559 14.02548 125.22389 0 0 0
156 -26.24045 14.73246 125.71695 0 0 0
157 -26.96577 15.20984 126.24931 0 0 0
158 -27.84251 15.43069 126.76771 0 0 0
159 -28.54474 15.48288 127.32444 0 0 0
160 -29.35962 16.04208 127.61616 0 0 0
161 -29.95998 16.14109 128.41034 0 0 0
162 -30.54112 16.81514 128.72117 0 0 0
163 -31.33198 17.33278 129.13281 0 0 0
164 -31.75495 18.17279 129.49816 0 0 0
165 -32.07360 18.93450 130.00825 0 0 0
166 -31.99478 19.31485 130.93340 0 0 0
167 -32.58699 19.94519 131.68343 0 0 0
168 -32.67522 20.55100 132.45269 0 0 0
169 -32.52241 21.23793 133.23852 0 0 0
170 -32.44311 21.05602 134.30293 0 0 0
171 -33.00792 21.51351 134.93103 0 0 0
172 -33.62464 22.07701 135.63992 0 0 0
173 -34.28059 22.49023 136.24285 0 0 0
174 -34.84787 23.00632 136.85464 0 0 0
175 -35.50500 22.86443 137.66377 0 0 0
176 -35.49024 23.10025 138.62585 0 0 0
177 -36.17219 23.60316 139.06698 0 0 0
178 -37.08933 23.73672 139.35833 0 0 0
179 -37.06413 24.68774 139.52164 0 0 0
180 -37.66446 24.73303 140.27303 0 0 0
181 -38.26063 24.91840 140.98962 0 0 0
182 -39.08784 25.31336 140.62640 0 0 0
183 -40.09128 25.37388 140.73099 0 0 0
184 -40.92016 25.53134 141.31195 0 0 0
185 -40.66318 25.54598 142.24531 0 0 0
186 -40.72828 25.97234 143.09597 0 0 0
187 -41.40294 25.66186 143.74066 0 0 0
188 -41.33820 25.32107 144.64727 0 0 0
189 -41.34523 25.83997 145.43623 0 0 0
190 -41.18934 26.73228 145.72757 0 0 0
191 -41.70906 27.56770 145.93472 0 0 0
192 -41.97569 28.59981 146.04615 0 0 0
193 -41.93900 29.27459 146.73666 0 0 0