ITEM: TIMESTEP
0
ITEM: NUMBER OF ATOMS
401
ITEM: BOX BOUNDS pp pp pp
-1.0000000000000000e+03 1.0000000000000000e+03
-1.0000000000000000e+03 1.0000000000000000e+03
-1.0000000000000000e+03 1.0000000000000000e+03
ITEM: ATOMS id x y z ix iy iz
1 0.00000 0.00000 0.00000 0 0 0
2 0.00000 0.00000 1.00000 0 0 0
3 0.00000 -0.50000 1.86603 0 0 0
4 0.00000 0.00000 2.73205 0 0 0
5 0.00000 -0.50000 3.59808 0 0 0
6 0.00000 0.00000 4.46410 0 0 0
7 0.00000 -0.50000 5.33013 0 0 0
8 0.00000 0.00000 6.19615 0 0 0
9 0.00000 -0.50000 7.06218 0 0 0
10 0.00000 0.00000 7.92820 0 0 0
11 0.00000 -0.50000 8.79423 0 0 0
12 0.00000 0.00000 9.66025 0 0 0
13 0.00000 -0.50000 10.52628 0 0 0
14 0.00000 0.00000 11.39230 0 0 0
15 0.00000 -0.50000 12.25833 0 0 0
16 0.00000 0.00000 13.12436 0 0 0
17 0.00000 -0.50000 13.99038 0 0 0
18 0.00000 0.00000 14.85641 0 0 0
19 0.00000 -0.50000 15.72243 0 0 0
20 0.00000 0.00000 16.58846 0 0 0
21 0.00000 -0.50000 17.45448 0 0 0
22 0.00000 0.00000 18.32051 0 0 0
23 0.00000 -0.50000 19.18653 0 0 0
24 0.00000 0.00000 20.05256 0 0 0
25 0.00000 -0.50000 20.91858 0 0 0
26 0.00000 0.00000 21.78461 0 0 0
27 0.00000 -0.50000 22.65064 0 0 0
28 0.00000 0.00000 23.51666 0 0 0
29 0.00000 -0.50000 24.38269 0 0 0
30 0.00000 0.00000 25.24871 0 0 0
31 0.00000 -0.50000 26.11474 0 0 0
32 0.00000 0.00000 26.98076 0 0 0
33 0.00000 -0.50000 27.84679 0 0 0
34 0.00000 0.00000 28.71281 0 0 0
35 0.00000 -0.50000 29.57884 0 0 0
36 0.00000 0.00000 30.44486 0 0 0
37 0.00000 -0.50000 31.31089 0 0 0
38 0.00000 0.00000 32.17691 0 0 0
39 0.00000 -0.50000 33.04294 0 0 0
40 0.00000 0.00000 33.90897 0 0 0
41 0.00000 -0.50000 34.77499 0 0 0
42 -0.08364 0.14623 35.53354 0 0 0
43 -0.16729 0.32660 36.51357 0 0 0
44 -0.25093 1.26553 36.84738 0 0 0
45 -0.33458 1.44590 37.82741 0 0 0
46 -0.41822 2.38483 38.16122 0 0 0
47 -0.50187 2.56520 39.14126 0 0 0
48 -0.58551 3.50413 39.47506 0 0 0
49 -0.66915 3.68450 40.45510 0 0 0
50 -0.75280 4.62343 40.78890 0 0 0
51 -0.83644 4.80380 41.76894 0 0 0
52 -0.92009 5.74273 42.10275 0 0 0
53 -1.00373 5.92310 43.08278 0 0 0
54 -1.08738 6.86202 43.41659 0 0 0
55 -1.17102 7.04240 44.39662 0 0 0
56 -1.25466 7.98132 44.73043 0 0 0
57 -1.33831 8.16170 45.71046 0 0 0
58 -1.42195 9.10062 46.04427 0 0 0
59 -1.50560 9.28100 47.02430 0 0 0
60 -1.58924 10.21992 47.35811 0 0 0
61 -1.67289 10.40030 48.33815 0 0 0
62 -1.75653 11.33922 48.67195 0 0 0
63 -1.84017 11.51960 49.65199 0 0 0
64 -1.92382 12.45852 49.98579 0 0 0
65 -2.00746 12.63890 50.96583 0 0 0
66 -2.09111 13.57782 51.29964 0 0 0
67 -2.17475 13.75820 52.27967 0 0 0
68 -2.25839 14.69712 52.61348 0 0 0
69 -2.34204 14.87750 53.59351 0 0 0
70 -2.42568 15.81642 53.92732 0 0 0
71 -2.50933 15.99680 54.90735 0 0 0
72 -2.59297 16.93572 55.24116 0 0 0
73 -2.67662 17.11610 56.22120 0 0 0
74 -2.76026 18.05502 56.55500 0 0 0
75 -2.84390 18.23540 57.53504 0 0 0
76 -2.92755 19.17432 57.86884 0 0 0
77 -3.01119 19.35469 58.84888 0 0 0
78 -3.09484 20.29362 59.18269 0 0 0
79 -3.17848 20.47399 60.16272 0 0 0
80 -3.26213 21.41292 60.49653 0 0 0
81 -3.34577 21.59329 61.47656 0 0 0
82 0.85495 -1.01074 34.86556 0 0 0
83 1.70991 -1.49833 34.68864 0 0 0
84 2.56486 -1.89536 35.02244 0 0 0
85 3.41981 -2.38295 34.84551 0 0 0
86 4.27477 -2.77998 35.17932 0 0 0
87 5.12972 -3.26757 35.00239 0 0 0
88 5.98467 -3.66460 35.33620 0 0 0
89 6.83963 -4.15219 35.15927 0 0 0
90 7.69458 -4.54922 35.49308 0 0 0
91 8.54953 -5.03681 35.31615 0 0 0
92 9.40449 -5.43384 35.64995 0 0 0
93 10.25944 -5.92144 35.47302 0 0 0
94 11.11439 -6.31846 35.80683 0 0 0
95 11.96935 -6.80606 35.62990 0 0 0
96 12.82430 -7.20308 35.96371 0 0 0
97 13.67925 -7.69068 35.78678 0 0 0
98 14.53421 -8.08770 36.12059 0 0 0
99 15.38916 -8.57530 35.94366 0 0 0
100 16.24411 -8.97232 36.27746 0 0 0
101 17.09907 -9.45992 36.10054 0 0 0
102 17.95402 -9.85694 36.43434 0 0 0
103 18.80897 -10.34454 36.25741 0 0 0
104 19.66393 -10.74156 36.59122 0 0 0
105 20.51888 -11.22916 36.41429 0 0 0
106 21.37384 -11.62618 36.74810 0 0 0
107 22.22879 -12.11378 36.57117 0 0 0
108 23.08374 -12.51080 36.90498 0 0 0
109 23.93870 -12.99840 36.72805 0 0 0
110 24.79365 -13.39542 37.06185 0 0 0
111 25.64860 -13.88302 36.88493 0 0 0
112 26.50356 -14.28004 37.21873 0 0 0
113 27.35851 -14.76764 37.04180 0 0 0
114 28.21346 -15.16466 37.37561 0 0 0
115 29.06842 -15.65226 37.19868 0 0 0
116 29.92337 -16.04928 37.53249 0 0 0
117 30.77832 -16.53688 37.35556 0 0 0
118 31.63328 -16.93390 37.68937 0 0 0
119 32.48823 -17.42150 37.51244 0 0 0
120 33.34318 -17.81852 37.84624 0 0 0
121 34.19814 -18.30612 37.66931 0 0 0
122 -0.77131 -1.13620 34.79313 0 0 0
123 -1.54262 -1.69624 34.49073 0 0 0
124 -2.31393 -2.23814 34.82454 0 0 0
125 -3.08524 -2.79817 34.52214 0 0 0
126 -3.85655 -3.34007 34.85595 0 0 0
127 -4.62785 -3.90011 34.55355 0 0 0
128 -5.39916 -4.44201 34.88736 0 0 0
129 -6.17047 -5.00204 34.58497 0 0 0
130 -6.94178 -5.54394 34.91877 0 0 0
131 -7.71309 -6.10398 34.61638 0 0 0
132 -8.48440 -6.64588 34.95018 0 0 0
133 -9.25571 -7.20591 34.64779 0 0 0
134 -10.02702 -7.74781 34.98159 0 0 0
135 -10.79833 -8.30785 34.67920 0 0 0
136 -11.56964 -8.84974 35.01301 0 0 0
137 -12.34095 -9.40978 34.71061 0 0 0
138 -13.11226 -9.95168 35.04442 0 0 0
139 -13.88356 -10.51171 34.74202 0 0 0
140 -14.65487 -11.05361 35.07583 0 0 0
141 -15.42618 -11.61365 34.77343 0 0 0
142 -16.19749 -12.15555 35.10724 0 0 0
143 -16.96880 -12.71558 34.80485 0 0 0
144 -17.74011 -13.25748 35.13865 0 0 0
145 -18.51142 -13.81752 34.83626 0 0 0
146 -19.28273 -14.35942 35.17006 0 0 0
147 -20.05404 -14.91945 34.86767 0 0 0
148 -20.82535 -15.46135 35.20148 0 0 0
149 -21.59666 -16.02139 34.89908 0 0 0
150 -22.36797 -16.56329 35.23289 0 0 0
151 -23.13927 -17.12332 34.93049 0 0 0
152 -23.91058 -17.66522 35.26430 0 0 0
153 -24.68189 -18.22526 34.96190 0 0 0
154 -25.45320 -18.76716 35.29571 0 0 0
155 -26.22451 -19.32719 34.99331 0 0 0
156 -26.99582 -19.86909 35.32712 0 0 0
157 -27.76713 -20.42913 35.02473 0 0 0
158 -28.53844 -20.97103 35.35853 0 0 0
159 -29.30975 -21.53106 35.05614 0 0 0
160 -30.08106 -22.07296 35.38994 0 0 0
161 -30.85237 -22.63300 35.08755 0 0 0
162 -31.07899 -23.30010 35.79720 0 0 0
163 -31.30562 -24.23266 36.07823 0 0 0
164 -31.53225 -24.45556 37.02636 0 0 0
165 -31.75888 -25.38812 37.30738 0 0 0
166 -31.98550 -25.61103 38.25552 0 0 0
167 -32.21213 -26.54358 38.53654 0 0 0
168 -32.43876 -26.76649 39.48467 0 0 0
169 -32.66539 -27.69905 39.76570 0 0 0
170 -32.89202 -27.92195 40.71383 0 0 0
171 -33.11864 -28.85451 40.99486 0 0 0
172 -33.34527 -29.07741 41.94299 0 0 0
173 -33.57190 -30.00997 42.22401 0 0 0
174 -33.79853 -30.23287 43.17214 0 0 0
175 -34.02515 -31.16543 43.45317 0 0 0
176 -34.25178 -31.38834 44.40130 0 0 0
177 -34.47841 -32.32089 44.68233 0 0 0
178 -34.70504 -32.54380 45.63046 0 0 0
179 -34.93167 -33.47636 45.91148 0 0 0
180 -35.15829 -33.69926 46.85962 0 0 0
181 -35.38492 -34.63182 47.14064 0 0 0
182 -35.61155 -34.85472 48.08877 0 0 0
183 -35.83818 -35.78728 48.36980 0 0 0
184 -36.06480 -36.01018 49.31793 0 0 0
185 -36.29143 -36.94274 49.59895 0 0 0
186 -36.51806 -37.16565 50.54709 0 0 0
187 -36.74469 -38.09821 50.82811 0 0 0
188 -36.97132 -38.32111 51.77624 0 0 0
189 -37.19794 -39.25367 52.05727 0 0 0
190 -37.42457 -39.47657 53.00540 0 0 0
191 -37.65120 -40.40913 53.28643 0 0 0
192 -37.87783 -40.63203 54.23456 0 0 0
193 -38.10445 -41.56459 54.51558 0 0 0
194 -38.33108 -41.78750 55.46371 0 0 0
195 -38.55771 -42.72005 55.74474 0 0 0
196 -38.78434 -42.94296 56.69287 0 0 0
197 -39.01097 -43.87552 56.97390 0 0 0
198 -39.23759 -44.09842 57.92203 0 0 0
199 -39.46422 -45.03098 58.20305 0 0 0
200 -39.69085 -45.25388 59.15119 0 0 0
201 -39.91748 -46.18644 59.43221 0 0 0
202 -30.60637 -23.11324 34.24562 0 0 0
203 -30.36037 -23.10817 33.27636 0 0 0
204 -30.11437 -23.94504 32.78734 0 0 0
205 -29.86837 -23.93998 31.81809 0 0 0
206 -29.62236 -24.77684 31.32907 0 0 0
207 -29.37636 -24.77178 30.35982 0 0 0
208 -29.13036 -25.60865 29.87080 0 0 0
209 -28.88436 -25.60358 28.90154 0 0 0
210 -28.63836 -26.44045 28.41253 0 0 0
211 -28.39236 -26.43539 27.44327 0 0 0
212 -28.14636 -27.27225 26.95426 0 0 0
213 -27.90036 -27.26719 25.98500 0 0 0
214 -27.65436 -28.10406 25.49599 0 0 0
215 -27.40836 -28.09899 24.52673 0 0 0
216 -27.16236 -28.93586 24.03772 0 0 0
217 -26.91636 -28.93080 23.06846 0 0 0
218 -26.67036 -29.76766 22.57945 0 0 0
219 -26.42436 -29.76260 21.61019 0 0 0
220 -26.17836 -30.59947 21.12117 0 0 0
221 -25.93236 -30.59440 20.15192 0 0 0
222 -25.68636 -31.43127 19.66290 0 0 0
223 -25.44036 -31.42621 18.69365 0 0 0
224 -25.19436 -32.26307 18.20463 0 0 0
225 -24.94836 -32.25801 17.23538 0 0 0
226 -24.70236 -33.09488 16.74636 0 0 0
227 -24.45636 -33.08981 15.77710 0 0 0
228 -24.21036 -33.92668 15.28809 0 0 0
229 -23.96436 -33.92162 14.31883 0 0 0
230 -23.71836 -34.75848 13.82982 0 0 0
231 -23.47236 -34.75342 12.86056 0 0 0
232 -23.22636 -35.59029 12.37155 0 0 0
233 -22.98036 -35.58522 11.40229 0 0 0
234 -22.73436 -36.42209 10.91328 0 0 0
235 -22.48836 -36.41703 9.94402 0 0 0
236 -22.24236 -37.25389 9.45500 0 0 0
237 -21.99636 -37.24883 8.48575 0 0 0
238 -21.75036 -38.08570 7.99673 0 0 0
239 -21.50436 -38.08063 7.02748 0 0 0
240 -21.25836 -38.91750 6.53846 0 0 0
241 -21.01236 -38.91244 5.56921 0 0 0
242 -31.64414 -22.04648 34.91700 0 0 0
243 -32.43592 -21.45327 35.06256 0 0 0
244 -33.22770 -21.03060 34.62161 0 0 0
245 -34.01947 -20.43739 34.76717 0 0 0
246 -34.81125 -20.01472 34.32621 0 0 0
247 -35.60303 -19.42151 34.47178 0 0 0
248 -36.39481 -18.99884 34.03082 0 0 0
249 -37.18658 -18.40563 34.17638 0 0 0
250 -37.97836 -17.98296 33.73543 0 0 0
251 -38.77014 -17.38975 33.88099 0 0 0
252 -39.56192 -16.96709 33.44003 0 0 0
253 -40.35369 -16.37387 33.58559 0 0 0
254 -41.14547 -15.95121 33.14464 0 0 0
255 -41.93725 -15.35800 33.29020 0 0 0
256 -42.72902 -14.93533 32.84924 0 0 0
257 -43.52080 -14.34212 32.99481 0 0 0
258 -44.31258 -13.91945 32.55385 0 0 0
259 -45.10436 -13.32624 32.69941 0 0 0
260 -45.89613 -12.90357 32.25846 0 0 0
261 -46.68791 -12.31036 32.40402 0 0 0
262 -47.47969 -11.88769 31.96306 0 0 0
263 -48.27146 -11.29448 32.10862 0 0 0
264 -49.06324 -10.87182 31.66767 0 0 0
265 -49.85502 -10.27860 31.81323 0 0 0
266 -50.64680 -9.85594 31.37227 0 0 0
267 -51.43857 -9.26273 31.51784 0 0 0
268 -52.23035 -8.84006 31.07688 0 0 0
269 -53.02213 -8.24685 31.22244 0 0 0
270 -53.81391 -7.82418 30.78149 0 0 0
271 -54.60568 -7.23097 30.92705 0 0 0
272 -55.39746 -6.80830 30.48609 0 0 0
273 -56.18924 -6.21509 30.63165 0 0 0
274 -56.98101 -5.79242 30.19070 0 0 0
275 -57.77279 -5.19921 30.33626 0 0 0
276 -58.56457 -4.77655 29.89530 0 0 0
277 -59.35635 -4.18333 30.04087 0 0 0
278 -60.14812 -3.76067 29.59991 0 0 0
279 -60.93990 -3.16746 29.74547 0 0 0
280 -61.73168 -2.74479 29.30452 0 0 0
281 -62.52345 -2.15158 29.45008 0 0 0
282 -62.25122 -1.35961 29.99659 0 0 0
283 -61.97899 -0.94700 30.86587 0 0 0
284 -61.70675 0.01212 30.94318 0 0 0
285 -61.43452 0.42473 31.81246 0 0 0
286 -61.16228 1.38385 31.88977 0 0 0
287 -60.89005 1.79645 32.75904 0 0 0
288 -60.61781 2.75557 32.83635 0 0 0
289 -60.34558 3.16818 33.70563 0 0 0
290 -60.07334 4.12730 33.78294 0 0 0
291 -59.80111 4.53991 34.65222 0 0 0
292 -59.52887 5.49903 34.72953 0 0 0
293 -59.25664 5.91164 35.59881 0 0 0
294 -58.98441 6.87076 35.67612 0 0 0
295 -58.71217 7.28337 36.54539 0 0 0
296 -58.43994 8.24249 36.62270 0 0 0
297 -58.16770 8.65509 37.49198 0 0 0
298 -57.89547 9.61421 37.56929 0 0 0
299 -57.62323 10.02682 38.43857 0 0 0
300 -57.35100 10.98594 38.51588 0 0 0
301 -57.07876 11.39855 39.38516 0 0 0
302 -56.80653 12.35767 39.46247 0 0 0
303 -56.53429 12.77028 40.33174 0 0 0
304 -56.26206 13.72940 40.40905 0 0 0
305 -55.98982 14.14200 41.27833 0 0 0
306 -55.71759 15.10112 41.35564 0 0 0
307 -55.44536 15.51373 42.22492 0 0 0
308 -55.17312 16.47285 42.30223 0 0 0
309 -54.90089 16.88546 43.17151 0 0 0
310 -54.62865 17.84458 43.24882 0 0 0
311 -54.35642 18.25719 44.11809 0 0 0
312 -54.08418 19.21631 44.19540 0 0 0
313 -53.81195 19.62892 45.06468 0 0 0
314 -53.53971 20.58804 45.14199 0 0 0
315 -53.26748 21.00064 46.01127 0 0 0
316 -52.99524 21.95976 46.08858 0 0 0
317 -52.72301 22.37237 46.95786 0 0 0
318 -52.45078 23.33149 47.03517 0 0 0
319 -52.17854 23.74410 47.90444 0 0 0
320 -51.90631 24.70322 47.98175 0 0 0
321 -51.63407 25.11583 48.85103 0 0 0
322 -63.23695 -2.65959 29.93261 0 0 0
323 -63.95045 -3.34082 30.09649 0 0 0
324 -64.66394 -3.53951 30.76839 0 0 0
325 -65.37744 -4.22073 30.93227 0 0 0
326 -66.09094 -4.41942 31.60417 0 0 0
327 -66.80443 -5.10064 31.76805 0 0 0
328 -67.51793 -5.29933 32.43995 0 0 0
329 -68.23142 -5.98055 32.60383 0 0 0
330 -68.94492 -6.17924 33.27572 0 0 0
331 -69.65842 -6.86047 33.43960 0 0 0
332 -70.37191 -7.05915 34.11150 0 0 0
333 -71.08541 -7.74038 34.27538 0 0 0
334 -71.79891 -7.93907 34.94728 0 0 0
335 -72.51240 -8.62029 35.11116 0 0 0
336 -73.22590 -8.81898 35.78306 0 0 0
337 -73.93939 -9.50020 35.94694 0 0 0
338 -74.65289 -9.69889 36.61883 0 0 0
339 -75.36639 -10.38012 36.78271 0 0 0
340 -76.07988 -10.57880 37.45461 0 0 0
341 -76.79338 -11.26003 37.61849 0 0 0
342 -77.50688 -11.45871 38.29039 0 0 0
343 -78.22037 -12.13994 38.45427 0 0 0
344 -78.93387 -12.33863 39.12617 0 0 0
345 -79.64736 -13.01985 39.29005 0 0 0
346 -80.36086 -13.21854 39.96194 0 0 0
347 -81.07436 -13.89976 40.12582 0 0 0
348 -81.78785 -14.09845 40.79772 0 0 0
349 -82.50135 -14.77968 40.96160 0 0 0
350 -83.21485 -14.97836 41.63350 0 0 0
351 -83.92834 -15.65959 41.79738 0 0 0
352 -84.64184 -15.85828 42.46928 0 0 0
353 -85.35533 -16.53950 42.63316 0 0 0
354 -86.06883 -16.73819 43.30505 0 0 0
355 -86.78233 -17.41941 43.46894 0 0 0
356 -87.49582 -17.61810 44.14083 0 0 0
357 -88.20932 -18.29932 44.30471 0 0 0
358 -88.92282 -18.49801 44.97661 0 0 0
359 -89.63631 -19.17924 45.14049 0 0 0
360 -90.34981 -19.37792 45.81239 0 0 0
361 -91.06330 -20.05915 45.97627 0 0 0
362 -62.87510 -1.84147 28.56680 0 0 0
363 -63.22674 -1.13127 27.95691 0 0 0
364 -63.57838 -1.30435 27.03691 0 0 0
365 -63.93002 -0.59416 26.42702 0 0 0
366 -64.28166 -0.76724 25.50703 0 0 0
367 -64.63330 -0.05704 24.89713 0 0 0
368 -64.98494 -0.23012 23.97714 0 0 0
369 -65.33658 0.48008 23.36725 0 0 0
370 -65.68822 0.30700 22.44725 0 0 0
371 -66.03986 1.01720 21.83736 0 0 0
372 -66.39150 0.84411 20.91737 0 0 0
373 -66.74314 1.55431 20.30748 0 0 0
374 -67.09478 1.38123 19.38748 0 0 0
375 -67.44642 2.09143 18.77759 0 0 0
376 -67.79806 1.91835 17.85759 0 0 0
377 -68.14970 2.62855 17.24770 0 0 0
378 -68.50134 2.45547 16.32771 0 0 0
379 -68.85298 3.16567 15.71782 0 0 0
380 -69.20462 2.99258 14.79782 0 0 0
381 -69.55626 3.70278 14.18793 0 0 0
382 -69.90790 3.52970 13.26793 0 0 0
383 -70.25954 4.23990 12.65804 0 0 0
384 -70.61118 4.06682 11.73805 0 0 0
385 -70.96282 4.77702 11.12816 0 0 0
386 -71.31446 4.60394 10.20816 0 0 0
387 -71.66610 5.31413 9.59827 0 0 0
388 -72.01774 5.14105 8.67828 0 0 0
389 -72.36938 5.85125 8.06839 0 0 0
390 -72.72102 5.67817 7.14839 0 0 0
391 -73.07267 6.38837 6.53850 0 0 0
392 -73.42431 6.21529 5.61850 0 0 0
393 -73.77595 6.92549 5.00861 0 0 0
394 -74.12759 6.75241 4.08862 0 0 0
395 -74.47923 7.46260 3.47873 0 0 0
396 -74.83087 7.28952 2.55873 0 0 0
397 -75.18251 7.99972 1.94884 0 0 0
398 -75.53415 7.82664 1.02884 0 0 0
399 -75.88579 8.53684 0.41895 0 0 0
400 -76.23743 8.36376 -0.50104 0 0 0
401 -76.58907 9.07396 -1.11093 0 0 0
ITEM: TIMESTEP
1000
ITEM: NUMBER OF ATOMS
401
ITEM: BOX BOUNDS pp pp pp
-1.0000000000000000e+03 1.0000000000000000e+03
-1.0000000000000000e+03 1.0000000000000000e+03
-1.0000000000000000e+03 1.0000000000000000e+03
ITEM: ATOMS id x y z ix iy iz
1 3.10966 0.26557 2.33557 0 0 0
2 2.48547 0.06285 3.10750 0 0 0
3 2.39004 0.20272 4.07311 0 0 0
4 1.74486 0.46455 4.83482 0 0 0
5 1.99979 -0.47252 5.11815 0 0 0
6 1.55356 -1.10150 5.71339 0 0 0
7 1.22662 -1.17800 6.66440 0 0 0
8 0.89000 -1.09744 7.62162 0 0 0
9 1.04597 -0.84216 8.52395 0 0 0
10 1.34934 -1.59939 9.04400 0 0 0
11 1.02464 -1.31997 9.97773 0 0 0
12 1.66412 -0.72134 10.43878 0 0 0
13 1.31987 -0.94530 11.36666 0 0 0
14 1.70864 -0.24135 12.03249 0 0 0
15 1.01892 -0.07759 12.68595 0 0 0
16 0.83820 0.39001 13.52693 0 0 0
17 0.97507 0.43352 14.46062 0 0 0
18 1.05827 0.52249 15.48540 0 0 0
19 0.91624 0.82829 16.41725 0 0 0
20 0.50262 1.05720 17.24205 0 0 0
21 0.76622 1.71307 18.01084 0 0 0
22 0.79882 1.74293 19.00621 0 0 0
23 0.49960 1.59457 19.91652 0 0 0
24 0.61173 2.04260 20.72672 0 0 0
25 0.89260 1.80870 21.61874 0 0 0
26 1.71045 1.36477 22.08690 0 0 0
27 1.61884 1.06023 23.05913 0 0 0
28 1.71732 1.40324 23.95233 0 0 0
29 1.48621 1.30283 24.85987 0 0 0
30 1.20197 1.53058 25.75143 0 0 0
31 1.20679 1.34933 26.73019 0 0 0
32 0.82749 1.37096 27.61067 0 0 0
33 0.98735 1.52751 28.56414 0 0 0
34 1.62691 1.44313 29.34255 0 0 0
35 1.32788 1.16022 30.19811 0 0 0
36 1.36156 1.10688 31.18721 0 0 0
37 0.62112 0.71485 31.72080 0 0 0
38 0.57472 0.01460 32.46278 0 0 0
39 0.25715 -0.72146 33.05331 0 0 0
40 -0.31683 -0.82556 33.88685 0 0 0
41 -0.10455 -1.59700 34.55690 0 0 0
42 0.57440 -0.87587 34.43393 0 0 0
43 0.94818 -0.10459 34.93931 0 0 0
44 0.87308 0.23915 35.78752 0 0 0
45 0.77922 0.86980 36.50430 0 0 0
46 1.26235 0.82158 37.36160 0 0 0
47 1.47383 0.61799 38.34024 0 0 0
48 1.48205 1.10225 39.17927 0 0 0
49 1.25576 1.65862 39.94342 0 0 0
50 0.70209 2.00504 40.68109 0 0 0
51 0.53073 2.96582 40.93316 0 0 0
52 0.31283 3.50078 41.73698 0 0 0
53 0.16516 3.94870 42.58893 0 0 0
54 -0.28701 4.30907 43.38432 0 0 0
55 -0.57813 4.78243 44.27249 0 0 0
56 -0.68744 5.12088 45.16345 0 0 0
57 -0.57451 5.37231 46.13255 0 0 0
58 0.04759 6.08987 46.20409 0 0 0
59 0.31793 6.91255 46.80269 0 0 0
60 0.58544 7.69619 47.29175 0 0 0
61 0.67484 8.33842 48.01849 0 0 0
62 0.63445 9.29431 48.14158 0 0 0
63 0.33235 10.01638 48.72918 0 0 0
64 0.95311 10.59346 49.12249 0 0 0
65 0.96840 11.61744 49.07947 0 0 0
66 0.62343 12.29760 49.74431 0 0 0
67 -0.38055 12.30366 50.04041 0 0 0
68 -0.58714 12.53477 50.95220 0 0 0
69 -1.16606 12.88385 51.58124 0 0 0
70 -0.97738 13.73821 51.97205 0 0 0
71 -0.96505 14.54793 52.64255 0 0 0
72 -1.37845 15.24671 53.20550 0 0 0
73 -1.82017 15.42576 54.05991 0 0 0
74 -2.37998 15.66515 54.83326 0 0 0
75 -2.53406 15.85329 55.82129 0 0 0
76 -2.07488 16.17139 56.56378 0 0 0
77 -1.24427 15.82381 56.86140 0 0 0
78 -0.40713 16.32486 57.33482 0 0 0
79 0.25369 15.90205 57.84772 0 0 0
80 -0.38410 15.68839 58.49024 0 0 0
81 -1.33386 15.76215 58.22824 0 0 0
82 0.64586 -1.91381 35.07596 0 0 0
83 1.43012 -2.61211 34.94138 0 0 0
84 2.25361 -2.37838 34.47346 0 0 0
85 3.14329 -3.03289 34.46676 0 0 0
86 3.78766 -3.65770 34.77893 0 0 0
87 4.67337 -3.98274 34.54734 0 0 0
88 5.59011 -4.50530 34.49039 0 0 0
89 6.42172 -4.80921 34.91520 0 0 0
90 7.33048 -5.05396 35.22325 0 0 0
91 7.92962 -5.32406 34.52604 0 0 0
92 8.81472 -5.79853 34.68945 0 0 0
93 9.50918 -6.51158 34.67460 0 0 0
94 10.25880 -6.71218 35.39941 0 0 0
95 10.74203 -7.55657 35.21100 0 0 0
96 11.53965 -8.13371 35.28712 0 0 0
97 12.10382 -7.84562 36.04125 0 0 0
98 12.79921 -7.67830 36.66478 0 0 0
99 13.70420 -7.54045 37.01314 0 0 0
100 14.60719 -7.87913 36.65382 0 0 0
101 15.59866 -8.08861 36.86764 0 0 0
102 16.28867 -7.48629 36.58910 0 0 0
103 17.15819 -7.92473 36.48288 0 0 0
104 17.66724 -8.31436 37.21667 0 0 0
105 18.56033 -8.78073 37.37669 0 0 0
106 19.19346 -9.48716 37.12067 0 0 0
107 20.06568 -10.07254 37.34839 0 0 0
108 20.97138 -9.78633 37.47519 0 0 0
109 21.74593 -10.17907 36.80176 0 0 0
110 22.44138 -10.99250 36.77152 0 0 0
111 22.66982 -11.88570 36.54635 0 0 0
112 23.10312 -12.79842 36.28615 0 0 0
113 23.39082 -13.70351 36.38265 0 0 0
114 24.30509 -13.99995 36.75757 0 0 0
115 25.17440 -13.64540 36.76129 0 0 0
116 25.53595 -14.48454 36.72811 0 0 0
117 25.59948 -15.24836 36.16788 0 0 0
118 26.06911 -15.78397 36.77795 0 0 0
119 26.39016 -16.65269 36.93717 0 0 0
120 26.99094 -17.36342 37.41852 0 0 0
121 27.28289 -18.22549 37.57316 0 0 0
122 -0.99301 -1.98540 34.30193 0 0 0
123 -2.00114 -2.23417 34.23364 0 0 0
124 -2.95464 -2.27961 33.87159 0 0 0
125 -3.45969 -3.06337 34.27861 0 0 0
126 -3.86526 -3.95635 33.91289 0 0 0
127 -4.69006 -4.51181 33.92767 0 0 0
128 -5.13405 -5.44852 33.91919 0 0 0
129 -6.02332 -5.99276 33.93683 0 0 0
130 -6.92459 -6.19284 33.66430 0 0 0
131 -7.61367 -6.93097 33.26224 0 0 0
132 -8.33450 -7.67030 33.20754 0 0 0
133 -9.04221 -8.20409 32.71694 0 0 0
134 -9.58389 -8.98493 33.21501 0 0 0
135 -10.62267 -9.18524 33.32066 0 0 0
136 -11.55063 -9.36209 33.46026 0 0 0
137 -12.37301 -9.88090 33.72567 0 0 0
138 -13.04089 -10.67436 33.78279 0 0 0
139 -13.85986 -10.91474 34.12639 0 0 0
140 -14.36578 -11.76547 34.19030 0 0 0
141 -15.13763 -12.05032 33.70682 0 0 0
142 -16.00769 -12.48426 33.93260 0 0 0
143 -16.83143 -12.88035 34.05914 0 0 0
144 -17.77971 -13.08717 34.01795 0 0 0
145 -18.74851 -12.86749 34.13928 0 0 0
146 -19.27403 -13.62596 33.98758 0 0 0
147 -19.93591 -14.31384 34.26777 0 0 0
148 -20.64899 -14.99565 34.48204 0 0 0
149 -21.33893 -15.65717 34.47324 0 0 0
150 -21.87344 -16.57378 34.62042 0 0 0
151 -22.71669 -16.66299 35.19171 0 0 0
152 -23.67578 -16.70680 35.04255 0 0 0
153 -24.48674 -17.33538 35.07470 0 0 0
154 -25.22503 -18.05744 35.14084 0 0 0
155 -25.86726 -18.81503 35.04947 0 0 0
156 -26.79936 -18.74455 35.27905 0 0 0
157 -27.53335 -19.47760 35.28199 0 0 0
158 -28.32113 -19.89942 35.72622 0 0 0
159 -28.95443 -20.57954 35.64683 0 0 0
160 -29.58125 -21.19034 35.13230 0 0 0
161 -30.50011 -21.61048 35.05157 0 0 0
162 -30.84595 -22.38656 35.53398 0 0 0
163 -30.81061 -23.34851 35.90284 0 0 0
164 -31.69515 -23.86758 36.17606 0 0 0
165 -31.92062 -24.66133 36.72197 0 0 0
166 -32.37732 -25.40446 37.16378 0 0 0
167 -32.98936 -25.98370 37.63511 0 0 0
168 -33.35838 -25.68245 38.50149 0 0 0
169 -33.40704 -26.56724 39.01146 0 0 0
170 -33.72758 -27.47154 39.58665 0 0 0
171 -33.74555 -28.30341 40.03893 0 0 0
172 -33.72633 -29.12455 40.57590 0 0 0
173 -34.03583 -30.03390 40.82155 0 0 0
174 -34.00854 -30.55956 41.65106 0 0 0
175 -34.35975 -31.36035 42.14809 0 0 0
176 -34.78767 -31.54428 43.06734 0 0 0
177 -34.97341 -31.77897 44.02139 0 0 0
178 -35.37915 -32.05414 44.97167 0 0 0
179 -35.87976 -32.33819 45.73497 0 0 0
180 -36.36178 -32.73878 46.58158 0 0 0
181 -36.43709 -33.21418 47.47091 0 0 0
182 -36.74583 -33.92223 48.12068 0 0 0
183 -36.70340 -34.56139 48.80917 0 0 0
184 -37.11535 -35.03806 49.51193 0 0 0
185 -37.54720 -35.98908 49.56667 0 0 0
186 -38.16133 -36.74242 49.94606 0 0 0
187 -38.79658 -36.44431 50.72881 0 0 0
188 -38.47056 -37.42813 50.58298 0 0 0
189 -38.18274 -38.02606 51.31884 0 0 0
190 -38.33527 -38.87654 51.73378 0 0 0
191 -38.08425 -39.35288 52.53165 0 0 0
192 -38.26349 -40.14615 53.04149 0 0 0
193 -39.06857 -40.71439 53.35106 0 0 0
194 -38.99167 -41.73488 53.30374 0 0 0
195 -38.57858 -42.21910 54.06860 0 0 0
196 -39.54797 -42.62230 53.98988 0 0 0
197 -40.18862 -42.43291 54.71647 0 0 0
198 -39.47457 -42.59743 55.46101 0 0 0
199 -40.14349 -42.73288 56.14917 0 0 0
200 -40.66309 -43.24220 56.85114 0 0 0
201 -41.06050 -44.15465 56.81852 0 0 0
202 -30.68822 -22.16062 34.31752 0 0 0
203 -30.05263 -22.47211 33.62643 0 0 0
204 -29.76680 -23.26737 33.10508 0 0 0
205 -29.15457 -23.51237 32.43506 0 0 0
206 -28.71804 -23.66938 31.54802 0 0 0
207 -28.89983 -24.57919 31.18496 0 0 0
208 -28.01371 -24.92967 30.94639 0 0 0
209 -27.68606 -25.34894 30.13092 0 0 0
210 -28.17847 -25.68546 29.29406 0 0 0
211 -28.03610 -26.51280 28.85823 0 0 0
212 -28.20767 -27.35357 28.39191 0 0 0
213 -27.91947 -28.11119 27.81601 0 0 0
214 -27.58048 -28.94426 27.49688 0 0 0
215 -27.19777 -29.46954 26.75924 0 0 0
216 -26.62532 -29.81361 26.02013 0 0 0
217 -26.13545 -30.01904 25.17592 0 0 0
218 -25.96211 -30.07772 24.22182 0 0 0
219 -25.38011 -30.40605 23.48741 0 0 0
220 -25.01692 -30.46685 22.49560 0 0 0
221 -24.59609 -29.81773 21.92422 0 0 0
222 -24.40079 -30.03094 20.91664 0 0 0
223 -24.06333 -30.18649 20.00531 0 0 0
224 -23.56964 -30.55629 19.18399 0 0 0
225 -23.57353 -30.93903 18.31332 0 0 0
226 -23.60399 -31.08095 17.26897 0 0 0
227 -23.07084 -31.37062 16.45058 0 0 0
228 -23.43597 -31.03362 15.57189 0 0 0
229 -22.99282 -31.96129 15.52393 0 0 0
230 -22.64507 -32.25971 14.64694 0 0 0
231 -22.52307 -33.22211 14.63777 0 0 0
232 -22.86840 -34.13277 14.46053 0 0 0
233 -23.03713 -34.67741 13.65875 0 0 0
234 -22.65018 -35.52979 13.40458 0 0 0
235 -22.05112 -36.16335 12.93135 0 0 0
236 -21.49835 -36.54967 12.17737 0 0 0
237 -20.75190 -36.48010 11.49344 0 0 0
238 -20.15286 -36.36037 10.78944 0 0 0
239 -20.25086 -36.08443 9.79337 0 0 0
240 -21.08766 -35.60288 9.66603 0 0 0
241 -21.88015 -36.14489 9.51680 0 0 0
242 -31.50652 -21.30037 35.02870 0 0 0
243 -32.42393 -21.22497 34.64917 0 0 0
244 -33.20902 -20.55719 34.55644 0 0 0
245 -33.94938 -19.92438 34.55475 0 0 0
246 -34.80909 -19.71969 34.79517 0 0 0
247 -35.13450 -18.76729 34.40021 0 0 0
248 -36.02641 -18.26996 34.51638 0 0 0
249 -36.82474 -17.60618 34.40911 0 0 0
250 -37.64368 -17.66059 33.92708 0 0 0
251 -38.62035 -17.52054 33.71302 0 0 0
252 -39.53950 -17.17858 33.63329 0 0 0
253 -40.47058 -16.96882 33.66645 0 0 0
254 -40.97875 -16.14762 33.56518 0 0 0
255 -41.64899 -15.32479 33.43682 0 0 0
256 -42.42358 -14.79491 33.27293 0 0 0
257 -43.33721 -14.81446 32.94325 0 0 0
258 -44.21729 -14.25161 32.82833 0 0 0
259 -45.09473 -13.96148 32.45731 0 0 0
260 -46.01225 -13.65862 32.14191 0 0 0
261 -46.82781 -13.00254 32.13067 0 0 0
262 -47.66245 -12.48147 31.96819 0 0 0
263 -47.84529 -11.53529 31.57902 0 0 0
264 -48.75156 -11.33779 31.20436 0 0 0
265 -49.64517 -10.75956 31.37854 0 0 0
266 -50.48491 -10.33876 31.01561 0 0 0
267 -51.36287 -9.90559 30.74150 0 0 0
268 -52.14899 -9.28489 30.56326 0 0 0
269 -52.85458 -8.56016 30.34888 0 0 0
270 -53.57551 -7.91954 30.62991 0 0 0
271 -54.30933 -7.20086 30.75267 0 0 0
272 -55.08195 -6.68553 30.54459 0 0 0
273 -56.02508 -6.82614 30.40303 0 0 0
274 -57.02158 -6.71462 30.30794 0 0 0
275 -57.94489 -6.31614 30.47559 0 0 0
276 -58.53782 -5.53135 30.59417 0 0 0
277 -59.45093 -5.12852 30.55231 0 0 0
278 -60.16979 -4.49688 30.84290 0 0 0
279 -60.98191 -4.14285 30.45923 0 0 0
280 -61.99178 -4.00117 30.35360 0 0 0
281 -62.90112 -3.54930 30.36518 0 0 0
282 -62.48186 -2.71920 30.60547 0 0 0
283 -62.21564 -2.28071 31.44384 0 0 0
284 -62.03825 -1.30310 31.72268 0 0 0
285 -61.95359 -0.36235 31.83636 0 0 0
286 -61.50538 0.48016 32.09200 0 0 0
287 -60.93865 1.23775 32.39829 0 0 0
288 -60.51261 2.11956 32.79477 0 0 0
289 -60.06899 2.92767 32.99617 0 0 0
290 -59.53170 3.42604 33.57841 0 0 0
291 -58.89141 4.16106 33.91257 0 0 0
292 -58.64520 4.66205 34.74839 0 0 0
293 -58.82104 5.58293 35.08610 0 0 0
294 -58.54196 6.07882 36.00646 0 0 0
295 -58.28441 6.92188 36.43316 0 0 0
296 -58.78705 7.37807 37.14070 0 0 0
297 -59.14910 8.22582 37.63448 0 0 0
298 -58.56920 8.99371 37.52140 0 0 0
299 -58.13428 9.82956 37.78442 0 0 0
300 -58.25506 10.77759 38.08464 0 0 0
301 -58.00710 11.66647 38.22128 0 0 0
302 -57.87188 12.70747 38.34354 0 0 0
303 -58.07280 13.49548 38.80948 0 0 0
304 -57.65572 13.83555 39.68306 0 0 0
305 -57.96551 14.69685 40.00172 0 0 0
306 -57.16962 15.19009 39.67374 0 0 0
307 -57.01810 16.16598 39.53333 0 0 0
308 -57.26857 17.09374 39.88288 0 0 0
309 -57.82412 17.69482 40.36117 0 0 0
310 -58.11446 18.33586 40.98487 0 0 0
311 -57.76472 19.12994 41.55231 0 0 0
312 -57.06826 19.40246 42.22416 0 0 0
313 -56.54617 19.80885 42.87133 0 0 0
314 -57.06334 20.06653 43.59636 0 0 0
315 -56.47865 19.85983 44.39500 0 0 0
316 -56.33428 20.72799 44.65638 0 0 0
317 -55.58594 21.12474 45.13844 0 0 0
318 -54.63796 21.05190 45.53182 0 0 0
319 -54.30284 21.77049 45.03707 0 0 0
320 -53.51896 21.84924 45.68684 0 0 0
321 -54.07233 21.59392 46.50101 0 0 0
322 -63.56112 -4.23539 30.17899 0 0 0
323 -64.44012 -4.77024 30.11461 0 0 0
324 -64.96247 -5.19925 30.90217 0 0 0
325 -65.48541 -5.66886 31.48026 0 0 0
326 -65.90398 -6.60567 31.57049 0 0 0
327 -66.85739 -6.57345 31.84377 0 0 0
328 -67.58440 -6.33757 32.43680 0 0 0
329 -68.38516 -6.68634 32.87785 0 0 0
330 -69.21374 -7.10197 33.15266 0 0 0
331 -69.86258 -7.24728 33.91812 0 0 0
332 -70.54358 -7.77506 34.45927 0 0 0
333 -71.31296 -7.90066 35.06690 0 0 0
334 -72.08514 -8.23520 35.61712 0 0 0
335 -72.98694 -8.02246 35.91354 0 0 0
336 -73.96825 -7.89330 35.71181 0 0 0
337 -74.83873 -8.35963 35.71271 0 0 0
338 -75.21510 -9.15867 36.14833 0 0 0
339 -75.51134 -10.03830 36.32458 0 0 0
340 -76.29409 -10.55134 36.29552 0 0 0
341 -76.52962 -11.30510 36.84153 0 0 0
342 -77.20028 -11.96448 37.09009 0 0 0
343 -78.03883 -12.33468 37.46358 0 0 0
344 -78.82665 -12.81914 37.50575 0 0 0
345 -79.50819 -13.50713 37.84932 0 0 0
346 -80.18871 -14.10424 38.07357 0 0 0
347 -80.52208 -14.50750 38.86446 0 0 0
348 -80.62900 -14.79910 39.77215 0 0 0
349 -81.14371 -15.30738 40.38251 0 0 0
350 -81.60251 -15.32125 41.30987 0 0 0
351 -82.35848 -15.28016 41.88450 0 0 0
352 -82.64878 -15.50909 42.80972 0 0 0
353 -83.07187 -15.40717 43.63948 0 0 0
354 -83.50962 -15.82203 44.44282 0 0 0
355 -84.35364 -15.77929 43.98034 0 0 0
356 -84.72269 -16.67781 43.88820 0 0 0
357 -85.26942 -17.48115 44.05538 0 0 0
358 -85.72514 -17.95121 43.32283 0 0 0
359 -85.58341 -18.86179 43.20443 0 0 0
360 -84.96223 -19.62422 43.08978 0 0 0
361 -84.43652 -19.78644 42.28058 0 0 0
362 -62.78716 -3.22219 29.49988 0 0 0
363 -62.32867 -2.90277 28.68968 0 0 0
364 -62.55334 -2.88743 27.59966 0 0 0
365 -63.34749 -3.40185 27.25121 0 0 0
366 -64.22455 -3.20835 26.91172 0 0 0
367 -64.13971 -2.30076 26.38844 0 0 0
368 -64.97558 -2.35389 25.74113 0 0 0
369 -65.43480 -1.61657 25.31618 0 0 0
370 -65.62606 -1.05074 24.57608 0 0 0
371 -66.10303 -0.61338 23.86961 0 0 0
372 -66.63533 -0.18684 23.12726 0 0 0
373 -67.01065 0.56084 22.47380 0 0 0
374 -66.37110 1.10286 22.02324 0 0 0
375 -66.91058 1.95446 21.79907 0 0 0
376 -66.86821 2.53986 20.94581 0 0 0
377 -67.03442 2.46188 20.01684 0 0 0
378 -67.78351 2.81029 19.50829 0 0 0
379 -68.50469 2.99655 18.89448 0 0 0
380 -68.76572 3.58971 18.12699 0 0 0
381 -69.09537 3.57915 17.06122 0 0 0
382 -69.62789 4.28503 16.61277 0 0 0
383 -69.86055 4.49970 15.64074 0 0 0
384 -70.58575 4.75105 15.00071 0 0 0
385 -70.46805 4.81134 14.04008 0 0 0
386 -70.69118 5.48532 13.31761 0 0 0
387 -70.33652 6.33409 13.15965 0 0 0
388 -69.71105 6.68190 12.46782 0 0 0