ITEM: TIMESTEP
0
ITEM: NUMBER OF ATOMS
201
ITEM: BOX BOUNDS pp pp pp
-1.0000000000000000e+03 1.0000000000000000e+03
-1.0000000000000000e+03 1.0000000000000000e+03
-1.0000000000000000e+03 1.0000000000000000e+03
ITEM: ATOMS id x y z ix iy iz
1 0.00000 0.00000 0.00000 0 0 0
2 0.00000 0.00000 1.00000 0 0 0
3 0.00000 -0.50000 1.86603 0 0 0
4 0.00000 0.00000 2.73205 0 0 0
5 0.00000 -0.50000 3.59808 0 0 0
6 0.00000 0.00000 4.46410 0 0 0
7 0.00000 -0.50000 5.33013 0 0 0
8 0.00000 0.00000 6.19615 0 0 0
9 0.00000 -0.50000 7.06218 0 0 0
10 0.00000 0.00000 7.92820 0 0 0
11 0.00000 -0.50000 8.79423 0 0 0
12 0.00000 0.00000 9.66025 0 0 0
13 0.00000 -0.50000 10.52628 0 0 0
14 0.00000 0.00000 11.39230 0 0 0
15 0.00000 -0.50000 12.25833 0 0 0
16 0.00000 0.00000 13.12436 0 0 0
17 0.00000 -0.50000 13.99038 0 0 0
18 0.00000 0.00000 14.85641 0 0 0
19 0.00000 -0.50000 15.72243 0 0 0
20 0.00000 0.00000 16.58846 0 0 0
21 0.00000 -0.50000 17.45448 0 0 0
22 -0.69907 -0.11927 18.05975 0 0 0
23 -1.39814 -0.09217 18.77429 0 0 0
24 -2.09721 0.54018 19.10809 0 0 0
25 -2.79628 0.56728 19.82263 0 0 0
26 -3.49535 1.19963 20.15644 0 0 0
27 -4.19441 1.22673 20.87098 0 0 0
28 -4.89348 1.85908 21.20479 0 0 0
29 -5.59255 1.88618 21.91933 0 0 0
30 -6.29162 2.51854 22.25314 0 0 0
31 -6.99069 2.54563 22.96768 0 0 0
32 -7.68976 3.17799 23.30148 0 0 0
33 -8.38883 3.20508 24.01602 0 0 0
34 -9.08790 3.83744 24.34983 0 0 0
35 -9.78697 3.86453 25.06437 0 0 0
36 -10.48604 4.49689 25.39818 0 0 0
37 -11.18511 4.52398 26.11272 0 0 0
38 -11.88417 5.15634 26.44653 0 0 0
39 -12.58324 5.18343 27.16107 0 0 0
40 -13.28231 5.81579 27.49487 0 0 0
41 -13.98138 5.84288 28.20941 0 0 0
42 0.89717 -0.41642 17.88818 0 0 0
43 1.79434 -0.56089 18.30557 0 0 0
44 2.69152 -0.27166 18.63938 0 0 0
45 3.58869 -0.41612 19.05676 0 0 0
46 4.48586 -0.12689 19.39057 0 0 0
47 5.38303 -0.27136 19.80796 0 0 0
48 6.28020 0.01787 20.14176 0 0 0
49 7.17737 -0.12660 20.55915 0 0 0
50 8.07455 0.16264 20.89296 0 0 0
51 8.97172 0.01817 21.31034 0 0 0
52 9.86889 0.30740 21.64415 0 0 0
53 10.76606 0.16293 22.06154 0 0 0
54 11.66323 0.45217 22.39535 0 0 0
55 12.56041 0.30770 22.81273 0 0 0
56 13.45758 0.59693 23.14654 0 0 0
57 14.35475 0.45246 23.56393 0 0 0
58 15.25192 0.74169 23.89773 0 0 0
59 16.14909 0.59723 24.31512 0 0 0
60 17.04626 0.88646 24.64893 0 0 0
61 17.94344 0.74199 25.06631 0 0 0
62 -0.19810 -1.46502 17.28277 0 0 0
63 -0.39621 -2.21490 16.65156 0 0 0
64 -0.59431 -3.13649 16.98536 0 0 0
65 -0.79241 -3.88637 16.35415 0 0 0
66 -0.99051 -4.80796 16.68795 0 0 0
67 -1.18862 -5.55784 16.05674 0 0 0
68 -1.38672 -6.47943 16.39054 0 0 0
69 -1.58482 -7.22932 15.75933 0 0 0
70 -1.78292 -8.15091 16.09313 0 0 0
71 -1.98103 -8.90079 15.46192 0 0 0
72 -2.17913 -9.82238 15.79572 0 0 0
73 -2.37723 -10.57226 15.16451 0 0 0
74 -2.57534 -11.49385 15.49831 0 0 0
75 -2.77344 -12.24373 14.86710 0 0 0
76 -2.97154 -13.16532 15.20090 0 0 0
77 -3.16964 -13.91520 14.56968 0 0 0
78 -3.36775 -14.83679 14.90349 0 0 0
79 -3.56585 -15.58667 14.27227 0 0 0
80 -3.76395 -16.50826 14.60608 0 0 0
81 -3.96205 -17.25814 13.97486 0 0 0
82 -3.25928 -17.96395 14.06397 0 0 0
83 -2.55650 -18.61974 13.78823 0 0 0
84 -1.85372 -19.18644 14.21830 0 0 0
85 -1.15095 -19.84224 13.94256 0 0 0
86 -0.44817 -20.40894 14.37262 0 0 0
87 0.25461 -21.06474 14.09688 0 0 0
88 0.95739 -21.63143 14.52695 0 0 0
89 1.66016 -22.28723 14.25121 0 0 0
90 2.36294 -22.85393 14.68128 0 0 0
91 3.06572 -23.50973 14.40554 0 0 0
92 3.76849 -24.07642 14.83561 0 0 0
93 4.47127 -24.73222 14.55987 0 0 0
94 5.17405 -25.29892 14.98994 0 0 0
95 5.87683 -25.95472 14.71420 0 0 0
96 6.57960 -26.52141 15.14427 0 0 0
97 7.28238 -27.17721 14.86853 0 0 0
98 7.98516 -27.74391 15.29860 0 0 0
99 8.68794 -28.39971 15.02286 0 0 0
100 9.39071 -28.96640 15.45293 0 0 0
101 10.09349 -29.62220 15.17719 0 0 0
102 -3.96894 -16.91182 13.03677 0 0 0
103 -3.97583 -16.14285 12.39752 0 0 0
104 -3.98271 -16.31198 11.41195 0 0 0
105 -3.98960 -15.54301 10.77270 0 0 0
106 -3.99649 -15.71214 9.78713 0 0 0
107 -4.00337 -14.94317 9.14787 0 0 0
108 -4.01026 -15.11230 8.16230 0 0 0
109 -4.01715 -14.34333 7.52305 0 0 0
110 -4.02403 -14.51246 6.53748 0 0 0
111 -4.03092 -13.74349 5.89823 0 0 0
112 -4.03781 -13.91262 4.91266 0 0 0
113 -4.04469 -13.14365 4.27341 0 0 0
114 -4.05158 -13.31278 3.28784 0 0 0
115 -4.05847 -12.54381 2.64858 0 0 0
116 -4.06535 -12.71294 1.66301 0 0 0
117 -4.07224 -11.94397 1.02376 0 0 0
118 -4.07913 -12.11310 0.03819 0 0 0
119 -4.08601 -11.34413 -0.60106 0 0 0
120 -4.09290 -11.51326 -1.58663 0 0 0
121 -4.09979 -10.74429 -2.22589 0 0 0
122 -4.85633 -17.64959 14.19174 0 0 0
123 -5.75060 -18.09704 14.18383 0 0 0
124 -6.64488 -18.32761 14.56738 0 0 0
125 -7.53915 -18.77506 14.55947 0 0 0
126 -8.43343 -19.00563 14.94302 0 0 0
127 -9.32770 -19.45308 14.93512 0 0 0
128 -10.22198 -19.68365 15.31866 0 0 0
129 -11.11625 -20.13110 15.31076 0 0 0
130 -12.01053 -20.36167 15.69430 0 0 0
131 -12.90480 -20.80912 15.68640 0 0 0
132 -13.79908 -21.03970 16.06995 0 0 0
133 -14.69335 -21.48714 16.06204 0 0 0
134 -15.58763 -21.71772 16.44559 0 0 0
135 -16.48190 -22.16516 16.43768 0 0 0
136 -17.37618 -22.39574 16.82123 0 0 0
137 -18.27045 -22.84318 16.81332 0 0 0
138 -19.16473 -23.07376 17.19687 0 0 0
139 -20.05900 -23.52121 17.18896 0 0 0
140 -20.95328 -23.75178 17.57251 0 0 0
141 -21.84755 -24.19923 17.56460 0 0 0
142 -22.55839 -23.52124 17.37742 0 0 0
143 -23.26924 -22.84050 17.55431 0 0 0
144 -23.98008 -22.34694 17.05321 0 0 0
145 -24.69093 -21.66619 17.23010 0 0 0
146 -25.40177 -21.17263 16.72900 0 0 0
147 -26.11262 -20.49189 16.90589 0 0 0
148 -26.82346 -19.99833 16.40480 0 0 0
149 -27.53430 -19.31759 16.58169 0 0 0
150 -28.24515 -18.82402 16.08059 0 0 0
151 -28.95599 -18.14328 16.25748 0 0 0
152 -29.66684 -17.64972 15.75638 0 0 0
153 -30.37768 -16.96898 15.93327 0 0 0
154 -31.08853 -16.47541 15.43217 0 0 0
155 -31.79937 -15.79467 15.60906 0 0 0
156 -32.51021 -15.30111 15.10797 0 0 0
157 -33.22106 -14.62037 15.28485 0 0 0
158 -33.93190 -14.12681 14.78376 0 0 0
159 -34.64275 -13.44606 14.96065 0 0 0
160 -35.35359 -12.95250 14.45955 0 0 0
161 -36.06443 -12.27176 14.63644 0 0 0
162 -22.01708 -24.62216 18.45476 0 0 0
163 -22.18660 -25.43352 19.01419 0 0 0
164 -22.35613 -25.35471 19.99656 0 0 0
165 -22.52566 -26.16607 20.55600 0 0 0
166 -22.69518 -26.08726 21.53837 0 0 0
167 -22.86471 -26.89861 22.09780 0 0 0
168 -23.03423 -26.81981 23.08017 0 0 0
169 -23.20376 -27.63116 23.63960 0 0 0
170 -23.37329 -27.55236 24.62197 0 0 0
171 -23.54281 -28.36371 25.18141 0 0 0
172 -23.71234 -28.28490 26.16378 0 0 0
173 -23.88187 -29.09626 26.72321 0 0 0
174 -24.05139 -29.01745 27.70558 0 0 0
175 -24.22092 -29.82881 28.26501 0 0 0
176 -24.39044 -29.75000 29.24738 0 0 0
177 -24.55997 -30.56135 29.80681 0 0 0
178 -24.72950 -30.48255 30.78918 0 0 0
179 -24.89902 -31.29390 31.34862 0 0 0
180 -25.06855 -31.21510 32.33099 0 0 0
181 -25.23808 -32.02645 32.89042 0 0 0
182 -21.86272 -24.90236 16.85370 0 0 0
183 -21.87790 -25.15584 15.88648 0 0 0
184 -21.89307 -26.12022 15.62239 0 0 0
185 -21.90825 -26.37370 14.65517 0 0 0
186 -21.92342 -27.33808 14.39108 0 0 0
187 -21.93860 -27.59156 13.42386 0 0 0
188 -21.95377 -28.55594 13.15977 0 0 0
189 -21.96895 -28.80942 12.19255 0 0 0
190 -21.98412 -29.77380 11.92846 0 0 0
191 -21.99930 -30.02728 10.96124 0 0 0
192 -22.01447 -30.99166 10.69715 0 0 0
193 -22.02964 -31.24514 9.72993 0 0 0
194 -22.04482 -32.20952 9.46584 0 0 0
195 -22.05999 -32.46300 8.49862 0 0 0
196 -22.07517 -33.42738 8.23453 0 0 0
197 -22.09034 -33.68086 7.26731 0 0 0
198 -22.10552 -34.64524 7.00322 0 0 0
199 -22.12069 -34.89872 6.03600 0 0 0
200 -22.13587 -35.86310 5.77191 0 0 0
201 -22.15104 -36.11658 4.80469 0 0 0
ITEM: TIMESTEP
1000
ITEM: NUMBER OF ATOMS
201
ITEM: BOX BOUNDS pp pp pp
-1.0000000000000000e+03 1.0000000000000000e+03
-1.0000000000000000e+03 1.0000000000000000e+03
-1.0000000000000000e+03 1.0000000000000000e+03
ITEM: ATOMS id x y z ix iy iz
1 0.05538 -0.89004 5.73390 0 0 0
2 -0.10907 0.03716 5.83189 0 0 0
3 -0.62561 0.44084 6.61592 0 0 0
4 -1.35636 -0.24286 6.38545 0 0 0
5 -1.52998 -0.46595 7.37011 0 0 0
6 -1.38475 -0.37805 8.32242 0 0 0
7 -1.14540 -0.94245 9.11077 0 0 0
8 -1.18129 -1.30635 10.13362 0 0 0
9 -1.50529 -0.75265 10.96232 0 0 0
10 -1.98471 -0.27563 11.70579 0 0 0
11 -1.19636 -0.47246 12.22913 0 0 0
12 -1.19292 -1.43750 12.56321 0 0 0
13 -0.91018 -1.63427 13.47284 0 0 0
14 0.00245 -2.08150 13.80509 0 0 0
15 -0.51960 -1.61246 14.54163 0 0 0
16 -1.30965 -1.20114 14.85946 0 0 0
17 -1.76099 -1.39677 15.79538 0 0 0
18 -1.76907 -0.54585 16.28140 0 0 0
19 -1.05127 -0.69636 16.91202 0 0 0
20 -1.18968 -0.89429 17.82590 0 0 0
21 -1.09486 -1.87395 18.00911 0 0 0
22 -1.67528 -1.58125 18.68165 0 0 0
23 -1.50197 -1.09823 19.54343 0 0 0
24 -2.39279 -0.88990 20.08665 0 0 0
25 -2.73819 -0.70486 20.93295 0 0 0
26 -3.42934 -0.50857 21.59272 0 0 0
27 -3.40483 0.12566 22.36180 0 0 0
28 -4.06543 0.62040 21.84812 0 0 0
29 -4.89802 1.11113 22.11361 0 0 0
30 -5.59437 1.61379 21.66431 0 0 0
31 -6.54389 1.95212 21.89509 0 0 0
32 -7.06151 1.99935 22.74476 0 0 0
33 -6.91449 2.95605 22.65883 0 0 0
34 -6.70082 3.84258 23.06781 0 0 0
35 -5.98504 4.58166 22.86740 0 0 0
36 -5.97427 5.44348 23.51325 0 0 0
37 -6.96263 5.50732 23.49648 0 0 0
38 -7.20952 6.43426 23.52006 0 0 0
39 -8.13736 6.28831 23.39930 0 0 0
40 -8.63590 6.54081 24.16688 0 0 0
41 -8.67437 6.52160 25.16864 0 0 0
42 -0.20457 -1.81063 17.71902 0 0 0
43 0.56146 -1.28620 17.50321 0 0 0
44 1.07708 -0.98420 18.25509 0 0 0
45 1.84426 -0.31309 18.20590 0 0 0
46 2.67301 -0.29004 17.65132 0 0 0
47 3.14400 0.59127 17.38399 0 0 0
48 3.95603 0.98676 17.81199 0 0 0
49 4.76529 0.87280 18.38015 0 0 0
50 5.58546 1.05459 18.96241 0 0 0
51 5.95506 0.81933 19.84335 0 0 0
52 6.93049 0.70582 20.04669 0 0 0
53 7.18786 0.52021 20.94990 0 0 0
54 8.02343 0.20726 21.07441 0 0 0
55 8.78865 -0.31608 21.01534 0 0 0
56 9.29104 -0.49111 20.17248 0 0 0
57 10.20787 0.03217 20.40069 0 0 0
58 10.82737 0.46926 20.98661 0 0 0
59 11.07278 1.06913 21.80948 0 0 0
60 11.53780 1.59318 22.47387 0 0 0
61 11.12155 2.13263 23.19448 0 0 0
62 -0.87928 -2.93529 17.85457 0 0 0
63 -0.57155 -3.81289 17.98987 0 0 0
64 -0.84349 -4.20382 17.19464 0 0 0
65 -0.38977 -5.14819 17.00063 0 0 0
66 -0.40160 -6.13544 16.75856 0 0 0
67 -0.41360 -6.82857 16.04921 0 0 0
68 -0.27926 -7.60975 15.50090 0 0 0
69 -0.58290 -8.37705 14.95328 0 0 0
70 -1.14164 -8.69952 14.08731 0 0 0
71 -1.96171 -9.39975 14.08479 0 0 0
72 -1.89895 -10.38604 14.11819 0 0 0
73 -2.35574 -11.20878 14.05655 0 0 0
74 -2.80172 -11.96407 13.53206 0 0 0
75 -2.95329 -12.89622 13.40755 0 0 0
76 -2.93863 -13.72635 12.91118 0 0 0
77 -3.49665 -14.49049 12.68611 0 0 0
78 -4.02434 -15.32637 12.65779 0 0 0
79 -3.86498 -16.36193 12.62380 0 0 0
80 -4.62529 -16.52353 13.20788 0 0 0
81 -4.06811 -17.42269 13.20717 0 0 0
82 -3.13241 -17.35081 13.61636 0 0 0
83 -2.79639 -17.94878 12.92743 0 0 0
84 -1.97962 -18.41588 12.83977 0 0 0
85 -0.99056 -18.64907 12.78558 0 0 0
86 -0.89505 -19.51146 13.26943 0 0 0
87 -0.40477 -19.98752 13.95985 0 0 0
88 0.05376 -20.91774 13.94019 0 0 0
89 0.72926 -21.65028 13.79864 0 0 0
90 1.57003 -22.25226 13.57761 0 0 0
91 2.30191 -22.86038 13.83838 0 0 0
92 3.13488 -23.32938 13.74379 0 0 0
93 3.95341 -22.82461 13.54847 0 0 0
94 4.66443 -23.25838 13.90404 0 0 0
95 5.00476 -24.21609 13.88074 0 0 0
96 5.73680 -23.75219 13.47249 0 0 0
97 6.17603 -23.38114 14.30223 0 0 0
98 6.50033 -23.96588 15.03264 0 0 0
99 5.77532 -24.60474 15.21663 0 0 0
100 5.50663 -24.86080 16.21967 0 0 0
101 5.58619 -25.72842 16.59808 0 0 0
102 -4.69091 -17.41251 12.48732 0 0 0
103 -5.10785 -16.99966 11.67376 0 0 0
104 -5.21944 -16.43727 10.80103 0 0 0
105 -4.82365 -16.23089 9.91949 0 0 0
106 -4.72385 -15.33104 9.53909 0 0 0
107 -4.63677 -14.62969 8.69349 0 0 0
108 -5.69812 -14.27643 8.46158 0 0 0
109 -5.63220 -14.32159 7.47260 0 0 0
110 -5.18853 -14.49613 6.63400 0 0 0
111 -4.66996 -14.63689 5.77316 0 0 0
112 -3.94642 -14.02715 5.63407 0 0 0
113 -3.29892 -13.27245 5.48334 0 0 0
114 -3.13028 -13.40792 4.55424 0 0 0
115 -3.30220 -13.66172 3.63380 0 0 0
116 -3.63216 -13.36679 2.74052 0 0 0
117 -3.87782 -13.65441 1.83952 0 0 0
118 -4.73991 -13.45980 1.45571 0 0 0
119 -5.11273 -12.87224 0.77871 0 0 0
120 -5.31204 -12.60504 -0.23211 0 0 0
121 -5.67783 -11.71827 0.06265 0 0 0
122 -4.82222 -17.93109 13.62272 0 0 0
123 -5.63478 -18.51450 13.90559 0 0 0
124 -6.52576 -18.88146 14.00840 0 0 0
125 -7.23311 -19.27561 14.67804 0 0 0
126 -7.81098 -20.03615 14.71986 0 0 0
127 -8.59969 -19.39812 14.62847 0 0 0
128 -9.26650 -20.02185 14.64947 0 0 0
129 -9.99052 -20.62053 14.42523 0 0 0
130 -10.90818 -20.49627 14.67402 0 0 0
131 -11.74479 -20.66091 15.03352 0 0 0
132 -12.74208 -20.74119 15.34870 0 0 0
133 -13.61321 -21.08447 15.61868 0 0 0
134 -14.16986 -21.67987 16.11281 0 0 0
135 -15.10798 -21.79271 16.22062 0 0 0
136 -15.80807 -22.42978 16.48130 0 0 0
137 -16.49502 -23.11653 16.67112 0 0 0
138 -17.23767 -23.58630 17.22199 0 0 0
139 -17.75160 -23.94167 17.96753 0 0 0
140 -18.63995 -24.45419 17.94089 0 0 0
141 -19.41091 -24.71296 17.32938 0 0 0
142 -20.21011 -24.06932 17.13604 0 0 0
143 -20.91851 -23.67444 16.56434 0 0 0
144 -21.97285 -23.55595 16.86675 0 0 0
145 -22.82966 -23.11301 16.69939 0 0 0
146 -23.59101 -22.56052 16.49053 0 0 0
147 -24.56802 -22.76741 16.45964 0 0 0
148 -25.44502 -22.65996 16.06728 0 0 0
149 -25.68623 -21.72361 15.96334 0 0 0
150 -26.06352 -20.89694 16.34748 0 0 0
151 -26.70161 -20.20546 16.35570 0 0 0
152 -27.63939 -19.82637 16.15871 0 0 0
153 -28.31510 -19.32761 16.57407 0 0 0
154 -28.61945 -18.41955 16.11370 0 0 0
155 -29.17376 -17.69392 15.79846 0 0 0
156 -29.72678 -16.92919 15.99588 0 0 0
157 -30.35449 -16.26287 16.31655 0 0 0
158 -31.15039 -15.81909 15.94164 0 0 0
159 -31.36178 -14.80098 15.98572 0 0 0
160 -30.63826 -14.42524 16.55163 0 0 0
161 -30.94863 -14.12545 17.41927 0 0 0
162 -19.57377 -24.68944 18.27198 0 0 0
163 -20.54120 -24.77364 18.59718 0 0 0
164 -21.38639 -24.39486 19.18578 0 0 0
165 -21.44352 -24.82320 20.04606 0 0 0
166 -21.55774 -24.58658 21.01188 0 0 0
167 -21.76165 -23.97738 21.71275 0 0 0
168 -21.94250 -24.42653 22.54553 0 0 0
169 -22.27501 -24.54476 23.47863 0 0 0
170 -22.13607 -24.88992 24.41078 0 0 0
171 -21.60730 -25.67986 24.46949 0 0 0
172 -21.39065 -26.32176 25.21640 0 0 0
173 -21.71068 -26.87613 26.01651 0 0 0
174 -22.08247 -26.88979 26.94465 0 0 0
175 -22.58776 -27.63070 27.31143 0 0 0
176 -22.96631 -28.51049 27.58230 0 0 0
177 -23.71575 -29.02402 28.08124 0 0 0
178 -24.60037 -28.74630 28.37407 0 0 0
179 -25.45999 -28.28586 28.10432 0 0 0
180 -26.02143 -28.52795 28.85451 0 0 0
181 -26.82760 -28.38559 29.50605 0 0 0
182 -19.32677 -25.64178 17.13514 0 0 0
183 -19.92956 -26.22703 17.59678 0 0 0
184 -19.99447 -27.19878 17.33595 0 0 0
185 -20.42843 -26.65931 16.70954 0 0 0
186 -19.92349 -27.27094 16.11164 0 0 0
187 -19.97638 -27.48266 15.18265 0 0 0
188 -19.63945 -27.95692 14.41859 0 0 0
189 -20.22989 -28.31731 13.74639 0 0 0
190 -20.63581 -29.06472 13.27388 0 0 0
191 -20.73621 -29.20920 12.31066 0 0 0
192 -21.07335 -29.78031 11.70285 0 0 0
193 -22.12774 -29.85622 11.73468 0 0 0
194 -22.50771 -30.68423 11.29481 0 0 0
195 -21.88235 -31.12682 10.68413 0 0 0
196 -21.69588 -31.43126 9.79188 0 0 0
197 -21.12569 -31.89283 9.06153 0 0 0
198 -20.76317 -32.75542 8.92245 0 0 0
199 -21.29879 -33.22826 9.54193 0 0 0
200 -21.75008 -33.59545 8.76372 0 0 0
201 -21.54084 -34.35390 9.38796 0 0 0
ITEM: TIMESTEP
2000
ITEM: NUMBER OF ATOMS
201
ITEM: BOX BOUNDS pp pp pp
-1.0000000000000000e+03 1.0000000000000000e+03
-1.0000000000000000e+03 1.0000000000000000e+03
-1.0000000000000000e+03 1.0000000000000000e+03
ITEM: ATOMS id x y z ix iy iz
1 -0.58389 0.28301 8.17413 0 0 0
2 -0.54394 -0.29660 8.97076 0 0 0
3 0.23121 -0.32256 9.47996 0 0 0
4 0.19719 -0.95184 10.36038 0 0 0
5 -0.36103 -1.13101 11.12863 0 0 0
6 -0.06345 -2.00756 11.41969 0 0 0
7 -0.88803 -1.84626 12.05297 0 0 0
8 -1.54818 -1.56733 11.37537 0 0 0
9 -2.28819 -1.91535 11.83005 0 0 0
10 -2.53153 -2.86170 11.89346 0 0 0
11 -2.29363 -2.65728 12.79220 0 0 0
12 -2.15531 -2.01853 13.53053 0 0 0
13 -2.74797 -2.68523 13.82229 0 0 0
14 -2.97052 -2.68792 14.79030 0 0 0
15 -3.32548 -2.62449 15.72339 0 0 0
16 -2.68031 -2.07554 16.28280 0 0 0
17 -1.77705 -2.21422 16.64688 0 0 0
18 -1.16436 -1.55408 16.13531 0 0 0
19 -0.18792 -1.68839 16.01125 0 0 0
20 0.22120 -1.65508 16.87921 0 0 0
21 -0.01880 -2.31887 17.66909 0 0 0
22 -0.63882 -2.11533 18.35050 0 0 0
23 -1.24400 -1.79553 19.09497 0 0 0
24 -1.58593 -1.91196 19.95864 0 0 0
25 -2.30658 -2.36490 20.35227 0 0 0
26 -2.80746 -1.68496 20.87590 0 0 0
27 -2.30287 -1.40519 21.61354 0 0 0
28 -2.68853 -1.58811 22.51564 0 0 0
29 -2.50090 -0.64926 22.74089 0 0 0
30 -2.97117 -0.09787 23.51999 0 0 0
31 -3.66760 0.17782 24.14328 0 0 0
32 -4.39864 0.77743 24.21176 0 0 0
33 -5.27289 1.24408 24.09931 0 0 0
34 -5.71668 2.13069 24.05313 0 0 0
35 -5.65344 2.80213 23.28392 0 0 0
36 -5.64199 3.41900 22.53381 0 0 0
37 -6.48411 3.32579 22.04192 0 0 0
38 -7.23691 3.92528 21.77449 0 0 0
39 -7.69752 4.66697 22.30549 0 0 0
40 -7.85176 5.55721 22.62840 0 0 0
41 -8.68637 5.47955 22.20408 0 0 0
42 0.72872 -2.39951 18.19759 0 0 0
43 0.71111 -2.09813 19.09605 0 0 0
44 1.02449 -1.18490 18.92499 0 0 0
45 0.37761 -0.59401 19.39904 0 0 0
46 0.60637 -0.09596 18.64211 0 0 0
47 1.46372 -0.09957 19.18993 0 0 0
48 2.34748 0.41259 19.17993 0 0 0
49 2.93236 0.48912 19.90888 0 0 0
50 3.88398 0.53749 19.51253 0 0 0
51 4.75023 0.44551 19.99334 0 0 0
52 5.54048 0.27785 20.49241 0 0 0
53 6.59170 0.12855 20.59103 0 0 0
54 7.55118 0.14356 20.39214 0 0 0
55 8.38743 0.47778 20.06768 0 0 0
56 9.09214 -0.18135 20.41971 0 0 0
57 9.10676 -1.15722 20.17976 0 0 0
58 9.03149 -1.12231 21.14130 0 0 0
59 9.19421 -1.23673 22.08388 0 0 0
60 9.98199 -1.76893 21.87126 0 0 0
61 9.56375 -2.15018 21.05003 0 0 0
62 0.28523 -2.85161 16.82419 0 0 0
63 -0.31148 -3.31971 16.29008 0 0 0
64 -0.85665 -3.91160 15.77710 0 0 0
65 -0.82927 -4.71873 15.21331 0 0 0
66 -1.25132 -5.64352 14.89341 0 0 0
67 -1.38037 -6.57657 15.28224 0 0 0
68 -1.45226 -7.48964 15.00951 0 0 0
69 -0.94430 -8.20075 15.45053 0 0 0
70 -1.32267 -8.91087 16.01076 0 0 0
71 -1.79683 -9.81012 15.99809 0 0 0
72 -2.22263 -10.69387 16.15046 0 0 0
73 -2.26968 -11.22201 15.34341 0 0 0
74 -2.57052 -11.88864 14.61056 0 0 0
75 -2.50078 -12.87635 14.49409 0 0 0
76 -2.85353 -13.81307 14.32151 0 0 0
77 -3.23433 -14.63802 14.47778 0 0 0
78 -3.38203 -15.56533 14.80668 0 0 0
79 -3.72561 -16.50941 14.73134 0 0 0
80 -4.20316 -17.21151 14.26541 0 0 0
81 -4.42116 -17.37979 13.36627 0 0 0
82 -3.65572 -18.01644 13.44714 0 0 0
83 -3.00768 -18.75613 13.21863 0 0 0
84 -2.75136 -19.57979 12.79217 0 0 0
85 -2.56265 -20.21204 12.01501 0 0 0
86 -1.87571 -20.90048 12.17047 0 0 0
87 -1.45080 -21.86110 12.53145 0 0 0
88 -0.51019 -21.78390 12.56968 0 0 0
89 0.31022 -22.05929 13.00043 0 0 0
90 1.01318 -22.56873 12.53046 0 0 0
91 1.67903 -22.73690 13.19163 0 0 0
92 2.20921 -23.59804 13.17333 0 0 0
93 3.03452 -23.80666 13.69101 0 0 0
94 3.13130 -22.89192 14.12590 0 0 0
95 3.46025 -22.64786 15.07558 0 0 0
96 3.57465 -23.37276 15.82218 0 0 0
97 4.26105 -23.41772 16.53820 0 0 0
98 4.93550 -23.73183 15.91742 0 0 0
99 5.22011 -24.62519 16.00625 0 0 0
100 5.80538 -24.82046 16.84513 0 0 0
101 5.29388 -24.01067 16.97382 0 0 0
102 -4.12997 -17.65140 12.50812 0 0 0
103 -3.48362 -17.94169 11.83018 0 0 0
104 -3.41466 -17.35223 11.09450 0 0 0
105 -3.20720 -16.33049 11.29072 0 0 0
106 -3.68331 -16.01912 10.48790 0 0 0
107 -4.52227 -15.51923 10.12639 0 0 0
108 -4.37906 -14.72304 9.46017 0 0 0
109 -5.25124 -14.97631 8.93894 0 0 0
110 -5.10178 -14.32310 8.09516 0 0 0
111 -5.21861 -13.78265 7.26549 0 0 0
112 -5.51047 -13.66618 6.26163 0 0 0
113 -5.69964 -13.39377 5.29533 0 0 0
114 -4.91263 -12.75723 5.09447 0 0 0
115 -4.28707 -12.35927 4.34572 0 0 0
116 -4.15109 -12.27282 3.33417 0 0 0
117 -4.25938 -12.83271 2.51679 0 0 0
118 -4.85078 -12.41762 1.82967 0 0 0
119 -5.15632 -12.53878 0.87619 0 0 0
120 -4.61919 -12.50536 -0.01036 0 0 0
121 -4.03308 -13.17784 -0.53238 0 0 0
122 -4.90809 -18.12125 13.64808 0 0 0
123 -5.88861 -18.24882 14.07631 0 0 0
124 -6.75197 -18.60720 13.88452 0 0 0
125 -7.31106 -18.90554 14.73606 0 0 0
126 -8.16763 -19.34965 14.70011 0 0 0
127 -8.92728 -19.94247 14.92409 0 0 0
128 -9.67185 -20.43537 15.15970 0 0 0
129 -10.28421 -21.11469 15.55445 0 0 0
130 -11.13693 -21.64638 15.32349 0 0 0
131 -12.01710 -21.34486 15.24677 0 0 0
132 -12.73933 -21.81121 15.77782 0 0 0
133 -13.13275 -20.99001 16.20998 0 0 0
134 -13.96825 -21.28470 15.86458 0 0 0
135 -14.74156 -21.88185 15.59131 0 0 0
136 -15.41259 -22.61746 15.81832 0 0 0
137 -16.18426 -22.84243 16.41022 0 0 0
138 -17.07507 -22.58000 16.43426 0 0 0
139 -18.00412 -22.39277 16.19899 0 0 0
140 -18.30942 -22.01456 17.04122 0 0 0
141 -18.90539 -22.72178 16.79857 0 0 0
142 -19.31195 -21.90319 16.57563 0 0 0
143 -20.04632 -21.31987 16.46682 0 0 0
144 -20.55469 -20.86793 15.80351 0 0 0
145 -21.57346 -21.03695 15.57673 0 0 0
146 -22.44887 -20.98158 15.13313 0 0 0
147 -23.08761 -21.61595 15.32864 0 0 0
148 -23.62520 -20.83265 15.07860 0 0 0
149 -24.46168 -20.95218 14.61190 0 0 0
150 -24.91130 -20.62392 13.79590 0 0 0
151 -25.56304 -20.37394 14.52020 0 0 0
152 -26.27194 -19.74720 14.80271 0 0 0
153 -27.04779 -19.29434 15.27246 0 0 0
154 -27.83649 -18.57445 15.60738 0 0 0
155 -27.50558 -17.90259 16.26746 0 0 0
156 -27.26987 -16.97616 16.42767 0 0 0
157 -26.67233 -16.35236 16.91616 0 0 0
158 -26.02340 -16.27332 17.74876 0 0 0
159 -26.18954 -15.77034 18.64752 0 0 0
160 -26.00651 -16.41197 19.28622 0 0 0
161 -26.54726 -17.07100 19.80827 0 0 0
162 -19.57503 -22.61664 17.62799 0 0 0
163 -20.22086 -23.16055 18.15617 0 0 0
164 -20.33727 -23.85704 18.83163 0 0 0
165 -20.18168 -24.63277 19.50604 0 0 0
166 -20.55524 -25.13077 20.40364 0 0 0
167 -21.38651 -24.86045 20.77343 0 0 0
168 -21.16790 -24.36947 21.57732 0 0 0
169 -20.85173 -24.72659 22.40739 0 0 0
170 -21.56836 -24.45383 23.13395 0 0 0
171 -22.10492 -25.07904 23.57579 0 0 0
172 -21.24932 -25.63050 23.86392 0 0 0
173 -20.53165 -26.07744 24.39764 0 0 0
174 -20.68394 -26.99293 24.90035 0 0 0
175 -21.49655 -27.53874 24.84761 0 0 0
176 -22.19690 -27.85077 25.31162 0 0 0
177 -22.07169 -27.58862 26.22732 0 0 0
178 -22.83554 -27.51085 26.82794 0 0 0
179 -22.66505 -27.94988 27.74162 0 0 0
180 -23.26253 -28.24114 28.45792 0 0 0
181 -23.97499 -28.92978 28.62962 0 0 0
182 -19.18216 -23.59393 16.61192 0 0 0
183 -19.34561 -24.45680 16.10863 0 0 0
184 -19.55455 -24.82184 15.27389 0 0 0
185 -19.74124 -25.23324 14.38851 0 0 0
186 -20.28739 -25.94271 14.03206 0 0 0
187 -20.94039 -26.54305 14.37144 0 0 0
188 -21.12825 -27.45153 14.21174 0 0 0
189 -21.72695 -27.49992 13.32619 0 0 0
190 -21.95018 -27.99002 12.45061 0 0 0
191 -22.83514 -28.37345 12.16227 0 0 0
192 -23.00740 -29.24350 12.57613 0 0 0
193 -23.34334 -30.19606 12.35633 0 0 0
194 -23.50486 -31.15383 12.27101 0 0 0
195 -23.43505 -31.87122 11.44533 0 0 0
196 -23.63018 -32.04371 10.52820 0 0 0
197 -22.99414 -32.28875 9.73546 0 0 0
198 -23.22739 -33.16514 9.63545 0 0 0
199 -23.75639 -33.10991 8.76283 0 0 0
200 -23.83514 -33.80872 8.15919 0 0 0
201 -23.23288 -34.55863 7.84450 0 0 0
ITEM: TIMESTEP
3000
ITEM: NUMBER OF ATOMS
201
ITEM: BOX BOUNDS pp pp pp
-1.0000000000000000e+03 1.0000000000000000e+03
-1.0000000000000000e+03 1.0000000000000000e+03
-1.0000000000000000e+03 1.0000000000000000e+03
ITEM: ATOMS id x y z ix iy iz
1 0.23505 -2.86884 8.04645 0 0 0
2 0.56946 -2.97626 8.86576 0 0 0
3 -0.41473 -2.84856 8.86942 0 0 0
4 -0.13649 -2.51626 9.80927 0 0 0
5 -0.69307 -2.32061 10.61974 0 0 0
6 -1.58061 -1.96551 11.00979 0 0 0
7 -2.14154 -1.98854 11.80751 0 0 0
8 -2.73504 -2.71201 11.84002 0 0 0
9 -3.08004 -1.80726 11.38810 0 0 0
10 -2.94981 -0.98462 11.79139 0 0 0
11 -2.73386 -1.23942 12.72997 0 0 0
12 -3.09323 -1.44505 13.55130 0 0 0
13 -3.89581 -1.92582 13.50624 0 0 0
14 -3.55445 -2.20648 14.32168 0 0 0
15 -2.73646 -1.69928 14.70340 0 0 0
16 -2.02653 -1.60225 15.60212 0 0 0
17 -1.82358 -1.15451 16.47630 0 0 0
18 -2.05884 -1.63555 17.30036 0 0 0
19 -2.09032 -2.61035 17.45612 0 0 0
20 -1.83521 -2.20703 18.35275 0 0 0
21 -0.98614 -2.22650 19.04034 0 0 0
22 -1.92756 -1.85802 19.25327 0 0 0
23 -2.76188 -1.64198 19.72462 0 0 0
24 -2.92880 -1.91258 20.63700 0 0 0
25 -2.21485 -1.50665 21.34455 0 0 0
26 -1.69308 -0.61439 21.38882 0 0 0
27 -2.51744 -0.21019 21.45400 0 0 0
28 -3.12019 -0.04136 22.22583 0 0 0
29 -4.06209 0.21422 21.94751 0 0 0
30 -4.86085 -0.30619 21.81595 0 0 0
31 -5.68339 0.25129 21.47817 0 0 0
32 -6.27549 -0.15522 22.16314 0 0 0
33 -6.82372 -0.86765 21.97843 0 0 0
34 -7.59467 -0.24792 22.02498 0 0 0
35 -7.15666 0.58311 22.38262 0 0 0
36 -6.90792 1.58439 22.11124 0 0 0
37 -7.24292 2.18576 22.82223 0 0 0
38 -7.66816 3.03649 22.54580 0 0 0
39 -7.91537 3.90695 22.97229 0 0 0
40 -8.18922 4.81657 22.63830 0 0 0
41 -8.51247 5.39540 21.98021 0 0 0
42 -0.89665 -1.59593 18.29719 0 0 0
43 -1.20361 -0.94255 17.68396 0 0 0
44 -0.54481 -0.48180 17.03337 0 0 0
45 -0.00750 -0.98057 16.36716 0 0 0
46 0.80582 -0.72756 16.75361 0 0 0
47 1.63708 -0.57957 16.17005 0 0 0
48 2.52763 -0.31946 15.90248 0 0 0
49 3.50131 -0.48046 15.89567 0 0 0
50 4.31051 -0.68650 16.41734 0 0 0
51 4.49328 -0.16453 17.20898 0 0 0
52 4.72206 0.17244 18.14869 0 0 0
53 4.27250 -0.35962 18.86859 0 0 0
54 5.20380 -0.42235 19.13225 0 0 0
55 5.20183 -1.42879 19.37973 0 0 0
56 5.95801 -2.04970 19.62153 0 0 0
57 6.02192 -2.96409 19.71501 0 0 0
58 6.17898 -2.88222 18.82235 0 0 0
59 7.07849 -2.41789 18.77823 0 0 0
60 7.70310 -1.72813 18.81631 0 0 0
61 8.50944 -1.34376 18.38837 0 0 0
62 -1.29621 -3.23868 19.00443 0 0 0
63 -2.05903 -3.55229 18.50802 0 0 0
64 -2.88418 -3.79937 17.94102 0 0 0
65 -3.19878 -4.67143 17.66879 0 0 0
66 -3.37900 -5.50691 17.23547 0 0 0
67 -3.38815 -6.17047 16.49293 0 0 0
68 -4.10583 -6.82351 16.37171 0 0 0
69 -3.81545 -7.68779 16.03358 0 0 0
70 -3.66690 -8.48648 16.59803 0 0 0
71 -3.81294 -9.32673 16.11323 0 0 0
72 -4.48058 -9.99349 15.95662 0 0 0
73 -4.42201 -10.72333 15.34560 0 0 0
74 -4.03103 -11.46711 14.96141 0 0 0
75 -3.48775 -12.30649 14.88654 0 0 0
76 -3.94859 -12.92958 14.15961 0 0 0
77 -4.36615 -13.65307 13.71595 0 0 0
78 -4.96938 -14.00070 12.96460 0 0 0
79 -5.21437 -14.92489 13.08612 0 0 0
80 -5.02069 -15.72821 12.57395 0 0 0
81 -4.87532 -16.79105 12.45564 0 0 0
82 -4.30569 -17.19384 13.05514 0 0 0
83 -3.37231 -17.49019 13.31822 0 0 0
84 -2.56795 -17.97535 13.49770 0 0 0
85 -2.18968 -17.42881 14.23070 0 0 0
86 -1.45794 -17.73294 13.71854 0 0 0
87 -0.46101 -17.89535 13.68126 0 0 0
88 -0.20893 -18.75567 13.25851 0 0 0
89 -0.52608 -19.50498 13.80202 0 0 0
90 -0.43065 -20.36803 13.31508 0 0 0
91 0.46628 -20.52776 13.28374 0 0 0
92 0.93143 -21.31173 13.60758 0 0 0
93 1.37635 -21.71279 12.82280 0 0 0
94 2.25395 -22.09746 12.86922 0 0 0
95 3.02160 -22.60467 13.09535 0 0 0
96 3.69481 -23.31940 12.83731 0 0 0
97 4.30905 -24.06553 12.71031 0 0 0
98 5.04682 -24.75754 12.83315 0 0 0
99 4.73175 -25.68868 12.68020 0 0 0
100 5.28172 -26.50032 12.43233 0 0 0
101 5.97564 -27.03958 12.88109 0 0 0
102 -5.04942 -16.32286 11.59899 0 0 0
103 -4.61391 -15.73914 10.87338 0 0 0
104 -3.87703 -15.57635 10.21491 0 0 0
105 -3.96007 -16.41442 9.85298 0 0 0
106 -3.99125 -16.24685 8.90414 0 0 0
107 -4.32088 -15.47388 8.41864 0 0 0
108 -4.92220 -14.77022 7.99913 0 0 0
109 -4.30537 -14.02634 7.88546 0 0 0
110 -4.61817 -14.00872 6.92028 0 0 0
111 -3.83246 -13.42260 7.08074 0 0 0
112 -3.79576 -13.49687 6.03041 0 0 0
113 -3.14015 -12.72457 5.80132 0 0 0
114 -2.88474 -13.57866 5.33913 0 0 0
115 -2.41722 -13.54035 4.42925 0 0 0
116 -2.41790 -14.17554 3.70445 0 0 0
117 -2.89809 -14.96279 3.48304 0 0 0
118 -3.43748 -15.15073 2.69828 0 0 0
119 -4.13402 -15.21921 1.97861 0 0 0
120 -4.10569 -16.20121 2.22473 0 0 0
121 -4.54101 -16.91354 1.69653 0 0 0
122 -5.81700 -17.11844 12.63538 0 0 0
123 -6.70693 -17.39469 12.54823 0 0 0
124 -7.38754 -18.11107 12.73686 0 0 0
125 -7.58607 -18.48377 13.58454 0 0 0
126 -7.75955 -19.24680 14.14337 0 0 0
127 -8.30068 -20.04340 14.36701 0 0 0
128 -8.97768 -20.25733 15.04258 0 0 0
129 -9.47546 -20.77037 15.75447 0 0 0
130 -10.29669 -20.19923 15.54420 0 0 0
131 -11.13328 -20.00193 16.14523 0 0 0
132 -12.09153 -19.79270 15.96970 0 0 0
133 -12.78845 -20.36571 15.79109 0 0 0
134 -12.74600 -21.32621 15.74076 0 0 0
135 -13.42665 -21.55473 15.05945 0 0 0
136 -14.00301 -22.34564 14.75965 0 0 0
137 -14.94680 -22.66089 14.61880 0 0 0
138 -15.85725 -23.13536 14.73604 0 0 0
139 -16.68134 -23.14439 15.23907 0 0 0
140 -17.66956 -23.44832 15.13937 0 0 0
141 -18.62511 -23.88842 15.25231 0 0 0
142 -19.26785 -23.22802 14.96446 0 0 0
143 -20.14948 -22.77122 15.01179 0 0 0
144 -20.50264 -22.84254 14.04906 0 0 0
145 -21.30605 -22.55300 13.52321 0 0 0
146 -21.63135 -21.61213 13.64856 0 0 0
147 -21.65953 -20.55317 13.82645 0 0 0
148 -22.02897 -19.74846 13.37474 0 0 0
149 -22.12133 -18.88115 13.80318 0 0 0
150 -22.24333 -18.16125 14.57662 0 0 0
151 -22.83212 -17.47478 15.28027 0 0 0
152 -23.71372 -17.69660 14.87801 0 0 0
153 -24.28338 -17.16694 14.34298 0 0 0
154 -24.94927 -16.47772 14.64715 0 0 0
155 -25.40978 -16.63945 15.52107 0 0 0
156 -26.12421 -16.52582 16.23431 0 0 0
157 -26.49402 -16.18367 15.38606 0 0 0
158 -25.91513 -15.60115 15.85013 0 0 0
159 -25.10637 -15.07526 16.03883 0 0 0
160 -25.01058 -14.80711 17.04613 0 0 0
161 -25.24379 -15.12590 17.94627 0 0 0
162 -19.06787 -23.52481 15.99258 0 0 0
163 -18.63103 -23.36420 16.90500 0 0 0
164 -18.70550 -23.15375 17.87809 0 0 0
165 -18.21766 -23.53130 18.74320 0 0 0
166 -18.84103 -23.78823 19.46812 0 0 0
167 -19.52083 -23.68711 20.17682 0 0 0
168 -19.54162 -22.83423 20.68694 0 0 0
169 -20.46354 -22.59369 20.90544 0 0 0
170 -20.94368 -23.46666 20.83922 0 0 0
171 -21.13579 -23.85722 21.79369 0 0 0
172 -21.52360 -24.80706 22.08809 0 0 0
173 -20.96519 -25.38057 21.56746 0 0 0
174 -20.32056 -26.01221 21.94308 0 0 0
175 -20.90509 -25.75073 22.65540 0 0 0
176 -21.58023 -25.41024 23.31688 0 0 0
177 -21.59826 -25.75849 24.31932 0 0 0
178 -22.47704 -25.69422 24.79373 0 0 0
179 -22.54827 -25.94431 25.73031 0 0 0
180 -21.70192 -26.55644 25.80020 0 0 0
181 -21.70681 -27.49768 25.64873 0 0 0