ITEM: TIMESTEP
0
ITEM: NUMBER OF ATOMS
300
ITEM: BOX BOUNDS pp pp pp
-1.0000000000000000e+03 1.0000000000000000e+03
-1.0000000000000000e+03 1.0000000000000000e+03
-1.0000000000000000e+03 1.0000000000000000e+03
ITEM: ATOMS id x y z ix iy iz
1 0.00000 0.00000 0.00000 0 0 0
2 0.00000 1.00000 0.00000 0 0 0
3 0.00000 1.86603 0.50000 0 0 0
4 0.00000 2.73205 0.00000 0 0 0
5 0.00000 3.59808 0.50000 0 0 0
6 0.00000 4.46410 0.00000 0 0 0
7 0.00000 5.33013 0.50000 0 0 0
8 0.00000 6.19615 0.00000 0 0 0
9 0.00000 7.06218 0.50000 0 0 0
10 0.00000 7.92820 0.00000 0 0 0
11 0.00000 8.79423 0.50000 0 0 0
12 0.00000 9.66025 0.00000 0 0 0
13 0.00000 10.52628 0.50000 0 0 0
14 0.00000 11.39230 0.00000 0 0 0
15 0.00000 12.25833 0.50000 0 0 0
16 0.00000 13.12436 0.00000 0 0 0
17 0.00000 13.99038 0.50000 0 0 0
18 0.00000 14.85641 0.00000 0 0 0
19 0.00000 15.72243 0.50000 0 0 0
20 0.00000 16.58846 0.00000 0 0 0
21 0.00000 17.45448 0.50000 0 0 0
22 0.00000 18.32051 0.00000 0 0 0
23 0.00000 19.18653 0.50000 0 0 0
24 0.00000 20.05256 0.00000 0 0 0
25 0.00000 20.91858 0.50000 0 0 0
26 0.00000 21.78461 0.00000 0 0 0
27 0.00000 22.65064 0.50000 0 0 0
28 0.00000 23.51666 0.00000 0 0 0
29 0.00000 24.38269 0.50000 0 0 0
30 0.00000 25.24871 0.00000 0 0 0
31 0.00000 26.11474 0.50000 0 0 0
32 0.00000 26.98076 0.00000 0 0 0
33 0.00000 27.84679 0.50000 0 0 0
34 0.00000 28.71281 0.00000 0 0 0
35 0.00000 29.57884 0.50000 0 0 0
36 0.00000 30.44486 0.00000 0 0 0
37 0.00000 31.31089 0.50000 0 0 0
38 0.00000 32.17691 0.00000 0 0 0
39 0.00000 33.04294 0.50000 0 0 0
40 0.00000 33.90897 0.00000 0 0 0
41 0.00000 34.77499 0.50000 0 0 0
42 0.00000 35.64102 0.00000 0 0 0
43 0.00000 36.50704 0.50000 0 0 0
44 0.00000 37.37307 0.00000 0 0 0
45 0.00000 38.23909 0.50000 0 0 0
46 0.00000 39.10512 0.00000 0 0 0
47 0.00000 39.97114 0.50000 0 0 0
48 0.00000 40.83717 0.00000 0 0 0
49 0.00000 41.70319 0.50000 0 0 0
50 0.00000 42.56922 0.00000 0 0 0
51 0.00000 43.43524 0.50000 0 0 0
52 0.00000 44.30127 0.00000 0 0 0
53 0.00000 45.16730 0.50000 0 0 0
54 0.00000 46.03332 0.00000 0 0 0
55 0.00000 46.89935 0.50000 0 0 0
56 0.00000 47.76537 0.00000 0 0 0
57 0.00000 48.63140 0.50000 0 0 0
58 0.00000 49.49742 0.00000 0 0 0
59 0.00000 50.36345 0.50000 0 0 0
60 0.00000 51.22947 0.00000 0 0 0
61 0.00000 52.09550 0.50000 0 0 0
62 0.00000 52.96152 0.00000 0 0 0
63 0.00000 53.82755 0.50000 0 0 0
64 0.00000 54.69358 0.00000 0 0 0
65 0.00000 55.55960 0.50000 0 0 0
66 0.00000 56.42563 0.00000 0 0 0
67 0.00000 57.29165 0.50000 0 0 0
68 0.00000 58.15768 0.00000 0 0 0
69 0.00000 59.02370 0.50000 0 0 0
70 0.00000 59.88973 0.00000 0 0 0
71 0.00000 60.75575 0.50000 0 0 0
72 0.00000 61.62178 0.00000 0 0 0
73 0.00000 62.48780 0.50000 0 0 0
74 0.00000 63.35383 0.00000 0 0 0
75 0.00000 64.21985 0.50000 0 0 0
76 0.00000 65.08588 0.00000 0 0 0
77 0.00000 65.95191 0.50000 0 0 0
78 0.00000 66.81793 0.00000 0 0 0
79 0.00000 67.68396 0.50000 0 0 0
80 0.00000 68.54998 0.00000 0 0 0
81 0.00000 69.41601 0.50000 0 0 0
82 0.00000 70.28203 0.00000 0 0 0
83 0.00000 71.14806 0.50000 0 0 0
84 0.00000 72.01408 0.00000 0 0 0
85 0.00000 72.88011 0.50000 0 0 0
86 0.00000 73.74613 0.00000 0 0 0
87 0.00000 74.61216 0.50000 0 0 0
88 0.00000 75.47818 0.00000 0 0 0
89 0.00000 76.34421 0.50000 0 0 0
90 0.00000 77.21024 0.00000 0 0 0
91 0.00000 78.07626 0.50000 0 0 0
92 0.00000 78.94229 0.00000 0 0 0
93 0.00000 79.80831 0.50000 0 0 0
94 0.00000 80.67434 0.00000 0 0 0
95 0.00000 81.54036 0.50000 0 0 0
96 0.00000 82.40639 0.00000 0 0 0
97 0.00000 83.27241 0.50000 0 0 0
98 0.00000 84.13844 0.00000 0 0 0
99 0.00000 85.00446 0.50000 0 0 0
100 0.00000 85.87049 0.00000 0 0 0
101 0.00000 86.73651 0.50000 0 0 0
102 0.00000 87.60254 0.00000 0 0 0
103 0.00000 88.46857 0.50000 0 0 0
104 0.00000 89.33459 0.00000 0 0 0
105 0.00000 90.20062 0.50000 0 0 0
106 0.00000 91.06664 0.00000 0 0 0
107 0.00000 91.93267 0.50000 0 0 0
108 0.00000 92.79869 0.00000 0 0 0
109 0.00000 93.66472 0.50000 0 0 0
110 0.00000 94.53074 0.00000 0 0 0
111 0.00000 95.39677 0.50000 0 0 0
112 0.00000 96.26279 0.00000 0 0 0
113 0.00000 97.12882 0.50000 0 0 0
114 0.00000 97.99485 0.00000 0 0 0
115 0.00000 98.86087 0.50000 0 0 0
116 0.00000 99.72690 0.00000 0 0 0
117 0.00000 100.59292 0.50000 0 0 0
118 0.00000 101.45895 0.00000 0 0 0
119 0.00000 102.32497 0.50000 0 0 0
120 0.00000 103.19100 0.00000 0 0 0
121 0.00000 104.05702 0.50000 0 0 0
122 0.00000 104.92305 0.00000 0 0 0
123 0.00000 105.78907 0.50000 0 0 0
124 0.00000 106.65510 0.00000 0 0 0
125 0.00000 107.52112 0.50000 0 0 0
126 0.00000 108.38715 0.00000 0 0 0
127 0.00000 109.25318 0.50000 0 0 0
128 0.00000 110.11920 0.00000 0 0 0
129 0.00000 110.98523 0.50000 0 0 0
130 0.00000 111.85125 0.00000 0 0 0
131 0.00000 112.71728 0.50000 0 0 0
132 0.00000 113.58330 0.00000 0 0 0
133 0.00000 114.44933 0.50000 0 0 0
134 0.00000 115.31535 0.00000 0 0 0
135 0.00000 116.18138 0.50000 0 0 0
136 0.00000 117.04740 0.00000 0 0 0
137 0.00000 117.91343 0.50000 0 0 0
138 0.00000 118.77945 0.00000 0 0 0
139 0.00000 119.64548 0.50000 0 0 0
140 0.00000 120.51151 0.00000 0 0 0
141 0.00000 121.37753 0.50000 0 0 0
142 0.00000 122.24356 0.00000 0 0 0
143 0.00000 123.10958 0.50000 0 0 0
144 0.00000 123.97561 0.00000 0 0 0
145 0.00000 124.84163 0.50000 0 0 0
146 0.00000 125.70766 0.00000 0 0 0
147 0.00000 126.57368 0.50000 0 0 0
148 0.00000 127.43971 0.00000 0 0 0
149 0.00000 128.30573 0.50000 0 0 0
150 0.00000 129.17176 0.00000 0 0 0
151 0.00000 130.03779 0.50000 0 0 0
152 0.00000 130.90381 0.00000 0 0 0
153 0.00000 131.76984 0.50000 0 0 0
154 0.00000 132.63586 0.00000 0 0 0
155 0.00000 133.50189 0.50000 0 0 0
156 0.00000 134.36791 0.00000 0 0 0
157 0.00000 135.23394 0.50000 0 0 0
158 0.00000 136.09996 0.00000 0 0 0
159 0.00000 136.96599 0.50000 0 0 0
160 0.00000 137.83201 0.00000 0 0 0
161 0.00000 138.69804 0.50000 0 0 0
162 0.00000 139.56406 0.00000 0 0 0
163 0.00000 140.43009 0.50000 0 0 0
164 0.00000 141.29612 0.00000 0 0 0
165 0.00000 142.16214 0.50000 0 0 0
166 0.00000 143.02817 0.00000 0 0 0
167 0.00000 143.89419 0.50000 0 0 0
168 0.00000 144.76022 0.00000 0 0 0
169 0.00000 145.62624 0.50000 0 0 0
170 0.00000 146.49227 0.00000 0 0 0
171 0.00000 147.35829 0.50000 0 0 0
172 0.00000 148.22432 0.00000 0 0 0
173 0.00000 149.09034 0.50000 0 0 0
174 0.00000 149.95637 0.00000 0 0 0
175 0.00000 150.82239 0.50000 0 0 0
176 0.00000 151.68842 0.00000 0 0 0
177 0.00000 152.55445 0.50000 0 0 0
178 0.00000 153.42047 0.00000 0 0 0
179 0.00000 154.28650 0.50000 0 0 0
180 0.00000 155.15252 0.00000 0 0 0
181 0.00000 156.01855 0.50000 0 0 0
182 0.00000 156.88457 0.00000 0 0 0
183 0.00000 157.75060 0.50000 0 0 0
184 0.00000 158.61662 0.00000 0 0 0
185 0.00000 159.48265 0.50000 0 0 0
186 0.00000 160.34867 0.00000 0 0 0
187 0.00000 161.21470 0.50000 0 0 0
188 0.00000 162.08073 0.00000 0 0 0
189 0.00000 162.94675 0.50000 0 0 0
190 0.00000 163.81278 0.00000 0 0 0
191 0.00000 164.67880 0.50000 0 0 0
192 0.00000 165.54483 0.00000 0 0 0
193 0.00000 166.41085 0.50000 0 0 0
194 0.00000 167.27688 0.00000 0 0 0
195 0.00000 168.14290 0.50000 0 0 0
196 0.00000 169.00893 0.00000 0 0 0
197 0.00000 169.87495 0.50000 0 0 0
198 0.00000 170.74098 0.00000 0 0 0
199 0.00000 171.60700 0.50000 0 0 0
200 0.00000 172.47303 0.00000 0 0 0
201 0.00000 173.33906 0.50000 0 0 0
202 0.00000 174.20508 0.00000 0 0 0
203 0.00000 175.07111 0.50000 0 0 0
204 0.00000 175.93713 0.00000 0 0 0
205 0.00000 176.80316 0.50000 0 0 0
206 0.00000 177.66918 0.00000 0 0 0
207 0.00000 178.53521 0.50000 0 0 0
208 0.00000 179.40123 0.00000 0 0 0
209 0.00000 180.26726 0.50000 0 0 0
210 0.00000 181.13328 0.00000 0 0 0
211 0.00000 181.99931 0.50000 0 0 0
212 0.00000 182.86533 0.00000 0 0 0
213 0.00000 183.73136 0.50000 0 0 0
214 0.00000 184.59739 0.00000 0 0 0
215 0.00000 185.46341 0.50000 0 0 0
216 0.00000 186.32944 0.00000 0 0 0
217 0.00000 187.19546 0.50000 0 0 0
218 0.00000 188.06149 0.00000 0 0 0
219 0.00000 188.92751 0.50000 0 0 0
220 0.00000 189.79354 0.00000 0 0 0
221 0.00000 190.65956 0.50000 0 0 0
222 0.00000 191.52559 0.00000 0 0 0
223 0.00000 192.39161 0.50000 0 0 0
224 0.00000 193.25764 0.00000 0 0 0
225 0.00000 194.12367 0.50000 0 0 0
226 0.00000 194.98969 0.00000 0 0 0
227 0.00000 195.85572 0.50000 0 0 0
228 0.00000 196.72174 0.00000 0 0 0
229 0.00000 197.58777 0.50000 0 0 0
230 0.00000 198.45379 0.00000 0 0 0
231 0.00000 199.31982 0.50000 0 0 0
232 0.00000 200.18584 0.00000 0 0 0
233 0.00000 201.05187 0.50000 0 0 0
234 0.00000 201.91789 0.00000 0 0 0
235 0.00000 202.78392 0.50000 0 0 0
236 0.00000 203.64994 0.00000 0 0 0
237 0.00000 204.51597 0.50000 0 0 0
238 0.00000 205.38200 0.00000 0 0 0
239 0.00000 206.24802 0.50000 0 0 0
240 0.00000 207.11405 0.00000 0 0 0
241 0.00000 207.98007 0.50000 0 0 0
242 0.00000 208.84610 0.00000 0 0 0
243 0.00000 209.71212 0.50000 0 0 0
244 0.00000 210.57815 0.00000 0 0 0
245 0.00000 211.44417 0.50000 0 0 0
246 0.00000 212.31020 0.00000 0 0 0
247 0.00000 213.17622 0.50000 0 0 0
248 0.00000 214.04225 0.00000 0 0 0
249 0.00000 214.90827 0.50000 0 0 0
250 0.00000 215.77430 0.00000 0 0 0
251 0.00000 216.64033 0.50000 0 0 0
252 0.00000 217.50635 0.00000 0 0 0
253 0.00000 218.37238 0.50000 0 0 0
254 0.00000 219.23840 0.00000 0 0 0
255 0.00000 220.10443 0.50000 0 0 0
256 0.00000 220.97045 0.00000 0 0 0
257 0.00000 221.83648 0.50000 0 0 0
258 0.00000 222.70250 0.00000 0 0 0
259 0.00000 223.56853 0.50000 0 0 0
260 0.00000 224.43455 0.00000 0 0 0
261 0.00000 225.30058 0.50000 0 0 0
262 0.00000 226.16660 0.00000 0 0 0
263 0.00000 227.03263 0.50000 0 0 0
264 0.00000 227.89866 0.00000 0 0 0
265 0.00000 228.76468 0.50000 0 0 0
266 0.00000 229.63071 0.00000 0 0 0
267 0.00000 230.49673 0.50000 0 0 0
268 0.00000 231.36276 0.00000 0 0 0
269 0.00000 232.22878 0.50000 0 0 0
270 0.00000 233.09481 0.00000 0 0 0
271 0.00000 233.96083 0.50000 0 0 0
272 0.00000 234.82686 0.00000 0 0 0
273 0.00000 235.69288 0.50000 0 0 0
274 0.00000 236.55891 0.00000 0 0 0
275 0.00000 237.42494 0.50000 0 0 0
276 0.00000 238.29096 0.00000 0 0 0
277 0.00000 239.15699 0.50000 0 0 0
278 0.00000 240.02301 0.00000 0 0 0
279 0.00000 240.88904 0.50000 0 0 0
280 0.00000 241.75506 0.00000 0 0 0
281 0.00000 242.62109 0.50000 0 0 0
282 0.00000 243.48711 0.00000 0 0 0
283 0.00000 244.35314 0.50000 0 0 0
284 0.00000 245.21916 0.00000 0 0 0
285 0.00000 246.08519 0.50000 0 0 0
286 0.00000 246.95121 0.00000 0 0 0
287 0.00000 247.81724 0.50000 0 0 0
288 0.00000 248.68327 0.00000 0 0 0
289 0.00000 249.54929 0.50000 0 0 0
290 0.00000 250.41532 0.00000 0 0 0
291 0.00000 251.28134 0.50000 0 0 0
292 0.00000 252.14737 0.00000 0 0 0
293 0.00000 253.01339 0.50000 0 0 0
294 0.00000 253.87942 0.00000 0 0 0
295 0.00000 254.74544 0.50000 0 0 0
296 0.00000 255.61147 0.00000 0 0 0
297 0.00000 256.47749 0.50000 0 0 0
298 0.00000 257.34352 0.00000 0 0 0
299 0.00000 258.20954 0.50000 0 0 0
300 0.00000 259.07557 0.00000 0 0 0
ITEM: TIMESTEP
1000
ITEM: NUMBER OF ATOMS
300
ITEM: BOX BOUNDS pp pp pp
-1.0000000000000000e+03 1.0000000000000000e+03
-1.0000000000000000e+03 1.0000000000000000e+03
-1.0000000000000000e+03 1.0000000000000000e+03
ITEM: ATOMS id x y z ix iy iz
1 2.53600 4.12939 1.45097 0 0 0
2 1.67225 4.58682 1.26827 0 0 0
3 0.83833 5.09208 1.40871 0 0 0
4 0.04269 5.78654 1.14546 0 0 0
5 -0.10441 6.74715 1.20804 0 0 0
6 -0.70195 7.19066 0.42707 0 0 0
7 -1.74745 7.01255 0.29603 0 0 0
8 -2.27212 7.68346 -0.07689 0 0 0
9 -1.85379 8.01279 -0.98347 0 0 0
10 -2.03984 9.02762 -0.87159 0 0 0
11 -2.19403 9.94821 -1.29764 0 0 0
12 -2.06289 10.92852 -1.46374 0 0 0
13 -1.94528 11.90231 -1.21788 0 0 0
14 -1.38262 12.37229 -0.60632 0 0 0
15 -0.64854 12.98276 -0.39035 0 0 0
16 -0.27960 13.78968 0.00371 0 0 0
17 0.06452 14.56422 0.31620 0 0 0
18 -0.40037 15.42652 0.18021 0 0 0
19 -0.88871 16.19616 -0.28992 0 0 0
20 -1.62069 16.74936 0.00622 0 0 0
21 -1.92557 17.67971 0.00883 0 0 0
22 -2.19361 18.60024 0.36734 0 0 0
23 -2.05942 19.51300 0.68364 0 0 0
24 -1.54743 20.27154 1.02161 0 0 0
25 -1.53816 21.04633 0.40380 0 0 0
26 -1.70447 22.00702 0.41868 0 0 0
27 -2.37431 22.79042 0.39645 0 0 0
28 -2.02579 23.56772 -0.09144 0 0 0
29 -1.47878 24.35577 -0.14842 0 0 0
30 -0.92911 25.23368 -0.09443 0 0 0
31 -0.67607 26.17454 -0.26391 0 0 0
32 -0.65537 27.02408 0.30568 0 0 0
33 -0.55582 27.89375 0.77429 0 0 0
34 -0.56507 28.86492 0.87432 0 0 0
35 -1.05636 29.69786 1.04636 0 0 0
36 -0.73071 30.58669 0.87278 0 0 0
37 -0.66155 31.56658 0.88791 0 0 0
38 -0.75613 32.61691 0.88932 0 0 0
39 -0.40304 33.46375 0.69554 0 0 0
40 -0.28079 34.18161 0.07299 0 0 0
41 -0.04841 35.10002 -0.30043 0 0 0
42 0.55348 35.95856 -0.19399 0 0 0
43 0.70589 36.91631 -0.38645 0 0 0
44 0.92979 37.83339 -0.37619 0 0 0
45 1.36711 38.71673 -0.35372 0 0 0
46 1.26532 39.64359 -0.06176 0 0 0
47 1.32225 40.60160 0.26777 0 0 0
48 1.56809 41.55690 0.10769 0 0 0
49 1.37785 42.43193 -0.28499 0 0 0
50 1.23149 43.37726 -0.05664 0 0 0
51 1.31257 44.30747 -0.09040 0 0 0
52 1.88851 44.97276 -0.53000 0 0 0
53 2.24704 45.81456 -0.84556 0 0 0
54 2.60843 46.65930 -0.33335 0 0 0
55 2.64544 47.42272 -1.03661 0 0 0
56 2.01165 48.20766 -0.90010 0 0 0
57 2.09972 49.16905 -1.01003 0 0 0
58 1.87285 49.69285 -0.26966 0 0 0
59 1.99390 50.34670 0.39363 0 0 0
60 2.34740 51.23066 0.48902 0 0 0
61 1.79856 51.73273 -0.18123 0 0 0
62 1.13978 52.50321 -0.41810 0 0 0
63 0.31641 53.09585 -0.65104 0 0 0
64 0.07230 54.04880 -0.71732 0 0 0
65 0.03213 55.04117 -0.48435 0 0 0
66 0.11869 56.09536 -0.21028 0 0 0
67 -0.29611 56.92715 -0.05580 0 0 0
68 -0.16626 57.82984 -0.40868 0 0 0
69 -0.45315 58.77237 -0.23983 0 0 0
70 -1.37702 59.24239 -0.19571 0 0 0
71 -1.53396 60.18056 -0.01178 0 0 0
72 -1.43532 61.09145 -0.23439 0 0 0
73 -2.06117 61.76866 -0.50316 0 0 0
74 -2.16971 62.62785 -0.12128 0 0 0
75 -1.81931 63.52129 -0.27867 0 0 0
76 -1.69074 64.39086 0.03517 0 0 0
77 -1.08491 65.17854 -0.01254 0 0 0
78 -0.57052 65.82069 0.46905 0 0 0
79 -0.53782 66.79192 0.55255 0 0 0
80 -0.55611 67.75420 0.49159 0 0 0
81 -0.61420 68.67705 0.95832 0 0 0
82 -0.92190 69.61524 1.10352 0 0 0
83 -1.52963 70.44073 1.17856 0 0 0
84 -1.37282 71.44883 1.44505 0 0 0
85 -1.58815 72.47760 1.32987 0 0 0
86 -1.23886 73.41740 1.43075 0 0 0
87 -0.77499 74.29582 1.67953 0 0 0
88 -0.33221 75.27183 1.69634 0 0 0
89 -0.56393 76.23780 1.53122 0 0 0
90 -1.04312 76.87682 1.02662 0 0 0
91 -1.11841 77.77959 0.71992 0 0 0
92 -0.77301 78.66276 1.00495 0 0 0
93 -0.55466 79.64267 0.98223 0 0 0
94 -0.11324 80.30849 0.48007 0 0 0
95 0.16911 80.95125 -0.18482 0 0 0
96 -0.10205 81.88711 -0.30690 0 0 0
97 -0.65849 82.63587 -0.03412 0 0 0
98 -0.88074 83.53055 0.07918 0 0 0
99 -0.79084 84.47615 0.34772 0 0 0
100 -0.54871 85.42804 0.27096 0 0 0
101 0.20672 86.11282 0.50697 0 0 0
102 -0.01181 87.04248 0.71884 0 0 0
103 0.02594 87.92417 1.17055 0 0 0
104 0.09782 88.84587 0.95580 0 0 0
105 -0.10456 89.79259 0.69312 0 0 0
106 0.18628 90.64970 1.03181 0 0 0
107 0.67582 91.49201 0.99179 0 0 0
108 0.76040 92.45528 1.08365 0 0 0
109 0.67772 93.39412 0.65445 0 0 0
110 0.96884 94.33531 0.76003 0 0 0
111 0.38077 95.10851 0.76687 0 0 0
112 0.30091 96.11698 0.88855 0 0 0
113 0.50091 97.01570 0.69687 0 0 0
114 0.32036 97.93864 0.84967 0 0 0
115 -0.00809 98.95480 0.97476 0 0 0
116 0.01381 99.85379 1.15061 0 0 0
117 0.44918 100.66409 1.39075 0 0 0
118 0.16700 101.58889 1.13498 0 0 0
119 0.03919 102.58128 1.08195 0 0 0
120 0.20224 103.40790 0.72567 0 0 0
121 -0.33322 104.23785 1.05210 0 0 0
122 -0.56190 105.12671 1.23339 0 0 0
123 -0.17210 106.07541 0.99878 0 0 0
124 -0.06859 107.07170 0.95719 0 0 0
125 0.37118 107.96304 0.54060 0 0 0
126 0.56809 108.84185 0.07748 0 0 0
127 0.73809 109.65463 0.72529 0 0 0
128 0.66374 110.63459 0.65986 0 0 0
129 0.42460 111.54874 0.37829 0 0 0
130 0.22103 112.56458 0.38177 0 0 0
131 0.39464 113.49466 0.11241 0 0 0
132 -0.04684 114.30354 0.22032 0 0 0
133 -0.11958 115.33705 0.29515 0 0 0
134 -0.41451 116.30362 0.24766 0 0 0
135 -0.61431 117.28521 0.05050 0 0 0
136 -1.08235 118.16545 -0.11732 0 0 0
137 -0.46860 118.94821 -0.11152 0 0 0
138 -0.30327 119.87499 -0.05315 0 0 0
139 -0.27875 120.74103 0.30310 0 0 0
140 -0.15854 121.66704 0.09601 0 0 0
141 -0.32105 122.53385 -0.37936 0 0 0
142 0.08976 123.37882 -0.06459 0 0 0
143 -0.16506 124.25459 -0.23184 0 0 0
144 -0.53427 124.73333 -1.00359 0 0 0
145 -0.96201 125.59942 -1.16550 0 0 0
146 -1.23510 126.54147 -1.08593 0 0 0
147 -0.48512 127.05679 -0.77694 0 0 0
148 -0.51155 128.11236 -0.61275 0 0 0
149 0.02225 128.82287 -0.14574 0 0 0
150 -0.22139 129.68803 -0.53380 0 0 0
151 0.29368 129.89235 -1.31550 0 0 0
152 0.20191 130.88205 -1.40848 0 0 0
153 -0.20471 131.78473 -1.30989 0 0 0
154 0.05384 132.68950 -1.42360 0 0 0
155 0.12408 133.71080 -1.26513 0 0 0
156 -0.06632 134.70688 -0.79902 0 0 0
157 -0.61456 135.52134 -0.81316 0 0 0
158 -0.68384 136.37919 -0.35992 0 0 0
159 -1.47352 137.02675 -0.70400 0 0 0
160 -1.61767 137.93123 -0.49212 0 0 0
161 -1.50428 138.93222 -0.27269 0 0 0
162 -1.61407 139.91532 -0.37781 0 0 0
163 -1.59397 140.80166 -0.66910 0 0 0
164 -0.99220 141.54119 -0.92105 0 0 0
165 -1.03889 142.57853 -0.63783 0 0 0
166 -0.39745 143.10202 -0.09693 0 0 0
167 -0.07474 143.98167 0.17282 0 0 0
168 -0.02558 144.94647 0.27095 0 0 0
169 0.12197 146.00346 0.27135 0 0 0
170 0.18369 147.11530 0.29977 0 0 0
171 0.70173 147.94703 0.30458 0 0 0
172 0.69918 148.84218 0.05586 0 0 0
173 0.11149 149.37564 -0.43764 0 0 0
174 0.20271 150.32345 -0.06452 0 0 0
175 0.66475 151.20950 0.04707 0 0 0
176 1.23771 152.03709 0.22678 0 0 0
177 1.24876 153.10103 -0.10700 0 0 0
178 1.57909 154.04315 0.01037 0 0 0
179 0.69130 154.39013 -0.04842 0 0 0
180 0.26854 155.31461 -0.13856 0 0 0
181 0.07812 156.24945 0.02200 0 0 0
182 0.60972 157.08991 0.28529 0 0 0
183 0.36772 157.89552 -0.14806 0 0 0
184 0.96705 158.57277 -0.74074 0 0 0
185 1.45586 159.11674 -1.31535 0 0 0
186 1.05888 159.95119 -1.63092 0 0 0
187 0.99039 160.91355 -1.54975 0 0 0
188 0.91617 161.89994 -1.32717 0 0 0
189 0.77137 162.83984 -1.14209 0 0 0
190 0.42827 163.74954 -1.00412 0 0 0
191 0.09792 164.52791 -0.62567 0 0 0
192 -0.16869 165.12595 0.13625 0 0 0
193 0.27072 165.97418 -0.07727 0 0 0
194 -0.00978 166.77263 0.57779 0 0 0
195 0.14292 167.67626 0.25554 0 0 0
196 0.01667 168.57876 0.66484 0 0 0
197 0.09125 169.39098 1.17644 0 0 0
198 0.05865 170.21956 1.64767 0 0 0
199 0.41857 171.15623 1.54975 0 0 0
200 0.40899 172.12572 1.55510 0 0 0
201 0.18524 173.04918 1.74381 0 0 0
202 0.55191 174.01264 1.70320 0 0 0
203 1.05545 174.71432 1.17053 0 0 0
204 1.19874 175.57189 0.61719 0 0 0
205 1.10689 176.62072 0.51680 0 0 0
206 0.67327 177.49308 0.40907 0 0 0
207 0.73329 178.49485 0.41896 0 0 0
208 0.87889 179.43766 0.55175 0 0 0
209 0.70894 180.39053 0.86302 0 0 0
210 0.54467 181.14336 0.32149 0 0 0
211 0.62661 182.13553 0.27554 0 0 0
212 0.35859 182.96826 -0.03622 0 0 0
213 0.34509 184.01298 -0.12549 0 0 0
214 0.42502 184.97772 -0.18128 0 0 0
215 0.34625 185.74731 -0.85965 0 0 0
216 0.25472 186.61917 -1.19259 0 0 0
217 0.44100 187.48743 -1.40537 0 0 0
218 0.71921 188.46920 -1.50219 0 0 0
219 0.43994 189.34967 -1.72760 0 0 0
220 0.34075 190.24290 -1.47465 0 0 0
221 -0.21216 191.05594 -1.48568 0 0 0
222 -0.31459 192.06378 -1.40618 0 0 0
223 0.23956 192.97636 -1.40973 0 0 0
224 0.18711 193.96490 -1.19983 0 0 0
225 0.75762 194.69657 -1.27973 0 0 0
226 0.55715 195.65157 -0.94627 0 0 0
227 -0.04831 196.34449 -0.42018 0 0 0
228 -0.66705 197.14527 -0.23168 0 0 0
229 -0.35932 197.78410 0.39887 0 0 0
230 -0.92762 198.56650 0.81375 0 0 0
231 -0.87105 199.53146 0.73045 0 0 0
232 -0.46269 200.39278 0.90981 0 0 0
233 -0.39982 201.33593 1.04612 0 0 0
234 -0.14607 202.31870 0.87655 0 0 0
235 -0.05313 203.25707 1.03226 0 0 0
236 -0.11543 204.32537 1.06351 0 0 0
237 -0.33614 205.28341 0.98113 0 0 0
238 -0.06904 206.26830 0.79274 0 0 0
239 -0.03217 207.25062 0.59299 0 0 0
240 0.19233 208.19678 0.66574 0 0 0
241 0.28125 209.14768 0.44307 0 0 0
242 0.46992 210.03524 0.86538 0 0 0
243 0.78689 211.01919 1.08443 0 0 0
244 1.35564 211.80211 0.79175 0 0 0
245 1.57610 212.18948 -0.14547 0 0 0
246 1.70221 213.13452 0.08597 0 0 0
247 2.27728 213.89622 0.29651 0 0 0
248 2.07774 214.98767 0.06121 0 0 0
249 2.16775 215.92711 -0.10881 0 0 0
250 2.03885 216.92998 -0.05288 0 0 0
251 1.45689 217.27911 0.69324 0 0 0
252 1.66291 218.24067 0.62053 0 0 0
253 1.48224 219.16418 0.63880 0 0 0
254 1.78843 219.84184 1.31004 0 0 0
255 2.22490 220.77824 1.38847 0 0 0
256 2.22100 221.53075 0.72733 0 0 0
257 1.86541 222.42002 0.89821 0 0 0
258 1.36600 223.22422 0.64322 0 0 0
259 1.56665 223.78673 -0.11047 0 0 0
260 1.30684 224.75473 -0.07962 0 0 0
261 0.86582 225.54970 -0.22613 0 0 0
262 0.59706 226.44735 -0.62499 0 0 0
263 0.65514 226.93163 0.22092 0 0 0
264 0.58481 227.73270 0.68578 0 0 0
265 0.49877 228.71540 0.69915 0 0 0
266 0.61163 229.69102 0.81582 0 0 0
267 1.24165 230.47038 0.89766 0 0 0
268 1.60160 231.32984 0.67593 0 0 0
269 1.13609 232.21572 0.82683 0 0 0
270 1.75731 233.00625 0.52092 0 0 0
271 1.42628 233.94795 0.55255 0 0 0
272 1.15541 234.84269 0.89408 0 0 0
273 1.07768 235.79492 1.22131 0 0 0
274 0.80277 236.52709 1.91319 0 0 0
275 0.77000 237.43331 1.63111 0 0 0
276 1.36488 238.08683 1.87176 0 0 0
277 1.26297 238.90054 1.32850 0 0 0
278 1.08961 239.69258 0.76250 0 0 0
279 0.89564 240.68683 0.43010 0 0 0
280 0.60138 241.55830 0.21728 0 0 0
281 0.02799 242.31208 0.45385 0 0 0
282 0.20031 243.20630 0.94048 0 0 0
283 0.12215 244.15060 0.67338 0 0 0
284 -0.13179 245.11571 0.44595 0 0 0
285 -0.63518 245.92161 0.76716 0 0 0
286 -0.84527 246.72723 1.18952 0 0 0
287 -0.80945 247.66104 1.40134 0 0 0
288 -0.59645 248.62919 1.22115 0 0 0
289 -0.09120 249.43562 1.62614 0 0 0
290 0.73893 249.93008 1.56133 0 0 0
291 0.77223 250.16590 0.59327 0 0 0
292 1.21977 251.00215 0.39270 0 0 0
293 0.67354 251.79119 0.25745 0 0 0
294 0.81415 252.73360 0.34697 0 0 0
295 0.49121 253.66481 0.43313 0 0 0
296 1.21741 254.07220 -0.21194 0 0 0
297 1.22559 254.71107 -1.09849 0 0 0
298 0.33704 254.84331 -1.54922 0 0 0
299 -0.46542 254.42119 -1.48947 0 0 0
300 -1.27866 254.01264 -1.09112 0 0 0
ITEM: TIMESTEP
2000
ITEM: NUMBER OF ATOMS
300
ITEM: BOX BOUNDS pp pp pp
-1.0000000000000000e+03 1.0000000000000000e+03
-1.0000000000000000e+03 1.0000000000000000e+03
-1.0000000000000000e+03 1.0000000000000000e+03
ITEM: ATOMS id x y z ix iy iz
1 0.20905 6.02397 -0.75824 0 0 0
2 1.00019 6.05925 -0.10912 0 0 0
3 1.33068 6.45890 0.72542 0 0 0
4 0.43037 6.65924 0.64137 0 0 0
5 0.86930 7.48619 1.00563 0 0 0
6 0.35758 8.42427 0.80379 0 0 0
7 -0.39278 9.17860 0.52955 0 0 0
8 -0.60942 10.09203 -0.06596 0 0 0
9 -1.06089 10.87427 -0.51856 0 0 0
10 -1.58515 11.68274 -0.56984 0 0 0
11 -1.22106 12.53093 -0.82316 0 0 0
12 -0.51499 13.15672 -0.79699 0 0 0
13 0.19075 13.38961 -0.12072 0 0 0
14 0.20529 14.29437 -0.44890 0 0 0
15 0.66557 14.76889 0.34724 0 0 0
16 0.47408 15.65489 0.08864 0 0 0
17 -0.28072 16.26298 0.53087 0 0 0
18 -0.63607 17.13494 0.94991 0 0 0
19 -0.63893 18.01681 0.42680 0 0 0
20 0.07139 18.73515 0.57912 0 0 0
21 0.08995 19.70946 0.28840 0 0 0
22 0.00007 20.24896 1.15456 0 0 0
23 0.77667 20.86424 0.87533 0 0 0
24 0.83779 21.66239 0.16769 0 0 0
25 0.71928 22.44563 0.72406 0 0 0
26 -0.13212 23.14052 0.60286 0 0 0
27 -0.54089 23.96676 0.20537 0 0 0
28 -0.83865 24.76425 -0.16766 0 0 0
29 -0.68495 25.67708 -0.45827 0 0 0
30 -0.44536 26.53349 -0.74965 0 0 0
31 0.17014 27.21556 -0.81485 0 0 0
32 0.36879 28.13253 -0.72782 0 0 0
33 0.24692 29.08453 -0.59841 0 0 0
34 0.33297 30.03142 -0.94165 0 0 0
35 0.27357 31.03056 -1.21312 0 0 0
36 0.48547 31.72866 -1.82609 0 0 0
37 0.05634 32.68567 -1.66612 0 0 0
38 -0.40601 33.44829 -1.96444 0 0 0
39 0.27247 34.05635 -1.57476 0 0 0
40 -0.05011 34.77853 -1.12527 0 0 0
41 -0.35620 35.72728 -1.31305 0 0 0
42 -0.22573 36.67564 -1.67282 0 0 0
43 0.45145 37.31581 -1.73365 0 0 0
44 0.17236 38.10203 -2.23790 0 0 0
45 0.35997 39.04623 -2.44781 0 0 0
46 0.24250 39.83277 -1.99170 0 0 0
47 -0.41891 40.49184 -1.96501 0 0 0
48 -0.34704 41.47015 -2.18638 0 0 0
49 -0.41369 42.40641 -1.69438 0 0 0
50 -0.06883 43.11722 -2.17786 0 0 0
51 -0.19996 43.99779 -1.67267 0 0 0
52 0.20350 44.94703 -1.46857 0 0 0
53 0.16049 45.80898 -1.11683 0 0 0
54 0.31544 46.74670 -0.89929 0 0 0
55 0.03407 47.71053 -0.99823 0 0 0
56 0.03421 48.30050 -1.78498 0 0 0
57 -0.21665 49.07953 -1.29824 0 0 0
58 -0.40005 49.95054 -0.87473 0 0 0
59 -0.43436 50.95926 -1.02335 0 0 0
60 0.31536 51.61526 -0.95435 0 0 0
61 0.19659 52.41222 -1.47083 0 0 0
62 -0.21634 53.16855 -1.83339 0 0 0
63 -0.51072 53.98083 -1.38095 0 0 0
64 -0.34258 54.98566 -1.48831 0 0 0
65 0.14012 55.83605 -1.27120 0 0 0
66 0.49944 56.25488 -2.03215 0 0 0
67 -0.53719 56.69078 -2.28726 0 0 0
68 -1.00399 57.42953 -1.73250 0 0 0
69 -0.91101 58.11033 -1.07002 0 0 0
70 -1.09295 59.06748 -1.20854 0 0 0
71 -1.55514 60.09102 -1.13736 0 0 0
72 -1.84725 60.99137 -1.05279 0 0 0
73 -1.43525 61.60928 -0.40866 0 0 0
74 -1.98688 62.36524 -0.16612 0 0 0
75 -1.79946 63.30260 -0.38211 0 0 0
76 -1.38258 64.05212 -0.95981 0 0 0
77 -1.53099 64.94585 -1.39543 0 0 0
78 -1.68098 65.95938 -1.44216 0 0 0
79 -1.67989 66.91601 -1.27731 0 0 0
80 -1.53355 67.78813 -0.86119 0 0 0
81 -1.27520 68.61378 -1.37465 0 0 0
82 -1.16722 69.49412 -1.05292 0 0 0
83 -1.07912 70.45454 -1.19194 0 0 0
84 -1.25814 71.50280 -1.28893 0 0 0
85 -1.97437 72.09838 -0.94074 0 0 0
86 -2.03304 73.13490 -1.09902 0 0 0
87 -1.76708 74.09738 -0.90059 0 0 0
88 -0.86372 74.51199 -0.82853 0 0 0
89 -0.27795 75.34480 -0.96461 0 0 0
90 -0.82080 76.17242 -1.07281 0 0 0
91 -1.19949 76.96544 -0.74929 0 0 0
92 -1.00124 78.06589 -0.92226 0 0 0
93 -0.92534 79.11235 -0.84287 0 0 0
94 -0.86789 80.05750 -0.67618 0 0 0
95 -0.65490 81.03636 -0.91954 0 0 0
96 -0.62220 82.06747 -1.15137 0 0 0
97 -0.44026 82.94675 -1.68815 0 0 0
98 -0.45653 83.96414 -1.80261 0 0 0
99 -0.72947 84.92622 -2.09278 0 0 0
100 -0.32405 85.89873 -1.85890 0 0 0
101 0.17021 86.66121 -1.34280 0 0 0
102 0.70770 87.54505 -1.16106 0 0 0
103 1.39387 88.10258 -0.73763 0 0 0
104 1.40096 89.09896 -0.97967 0 0 0
105 0.71900 89.80836 -0.94178 0 0 0
106 0.20566 90.61869 -0.68733 0 0 0
107 0.35461 91.69637 -0.59046 0 0 0
108 0.35423 92.69460 -0.59295 0 0 0
109 -0.32661 93.32488 -0.62682 0 0 0
110 0.00482 94.30813 -0.54426 0 0 0
111 -0.05922 95.19807 -0.12902 0 0 0
112 -0.30742 96.11972 0.01374 0 0 0
113 -0.06425 97.05122 0.34040 0 0 0
114 -0.05193 97.94107 -0.19810 0 0 0
115 -0.23707 98.86741 -0.31610 0 0 0
116 -0.59273 99.75248 -0.11297 0 0 0
117 -0.36888 100.73257 0.09111 0 0 0
118 0.12878 101.50889 0.24004 0 0 0
119 0.12303 102.46034 0.41099 0 0 0
120 -0.02610 103.43904 0.81834 0 0 0
121 -0.46292 104.30125 1.11399 0 0 0
122 -0.41666 105.21794 0.89256 0 0 0
123 -0.24847 106.25240 0.81991 0 0 0
124 -0.23363 107.19572 0.94504 0 0 0
125 -0.72278 107.92058 0.51672 0 0 0
126 -0.57838 108.87363 0.70116 0 0 0
127 -0.08377 109.61822 0.40363 0 0 0
128 0.45228 110.31868 -0.14030 0 0 0
129 0.58883 111.21143 -0.45152 0 0 0
130 0.33927 112.16507 -0.88186 0 0 0
131 0.44847 113.10431 -1.09511 0 0 0
132 0.57135 114.08508 -1.17150 0 0 0
133 0.23979 114.97142 -0.94342 0 0 0
134 0.31871 116.00420 -0.69858 0 0 0
135 0.74964 116.88942 -0.96143 0 0 0
136 0.41269 117.77380 -1.20859 0 0 0
137 -0.14743 118.56629 -1.20623 0 0 0
138 -0.41321 119.43468 -1.29749 0 0 0
139 -0.83504 120.25861 -1.16117 0 0 0
140 -0.94399 121.21776 -1.01253 0 0 0
141 -1.12494 122.10157 -1.45253 0 0 0
142 -1.49255 123.04143 -1.21209 0 0 0
143 -1.83579 123.55885 -0.32624 0 0 0
144 -1.93662 124.36713 -0.84547 0 0 0
145 -2.27663 125.26587 -0.77221 0 0 0
146 -2.65829 126.17318 -0.94997 0 0 0
147 -2.56415 127.13326 -0.77676 0 0 0
148 -2.37757 128.10924 -0.73304 0 0 0
149 -2.12837 129.03789 -0.45631 0 0 0
150 -2.00892 130.02445 -0.64906 0 0 0
151 -1.52551 130.66550 -0.07035 0 0 0
152 -1.36827 131.66746 -0.37428 0 0 0
153 -1.29170 132.58106 -0.41981 0 0 0
154 -1.02987 133.49837 -0.66614 0 0 0
155 -0.75674 134.27704 -1.11071 0 0 0
156 -1.10749 135.12813 -0.77934 0 0 0
157 -1.33092 136.02529 -0.38516 0 0 0
158 -1.67636 136.91120 -0.02501 0 0 0
159 -2.38269 137.53260 -0.11612 0 0 0
160 -2.09923 138.47918 0.00904 0 0 0
161 -1.79762 139.35763 0.16674 0 0 0
162 -1.44894 140.25211 0.07282 0 0 0
163 -1.18763 141.17964 0.13010 0 0 0
164 -1.13273 142.10847 0.06672 0 0 0
165 -1.37535 142.98360 -0.52495 0 0 0
166 -0.74486 143.73354 -0.73231 0 0 0
167 -0.63111 144.53302 -1.23330 0 0 0
168 -0.36814 145.47919 -0.83487 0 0 0
169 -0.60073 146.36840 -0.25724 0 0 0
170 -0.70954 146.87777 -1.05372 0 0 0
171 -0.26897 147.72418 -0.94362 0 0 0
172 -0.42927 148.69060 -1.05335 0 0 0
173 -0.31040 149.71276 -1.07531 0 0 0
174 -0.00768 150.66370 -1.27417 0 0 0
175 0.44913 151.51225 -0.90412 0 0 0
176 0.69061 152.47101 -1.27679 0 0 0
177 0.86362 152.99449 -0.44008 0 0 0
178 0.82936 153.93126 -0.57914 0 0 0
179 0.87557 154.90018 -0.23110 0 0 0
180 1.01133 155.91123 0.00979 0 0 0
181 0.94581 156.89355 -0.05633 0 0 0
182 0.34358 157.07176 -0.84387 0 0 0
183 0.04347 157.94621 -0.43844 0 0 0
184 0.20113 158.89620 -0.37092 0 0 0
185 -0.13587 159.61399 0.20979 0 0 0
186 0.03621 160.56457 -0.07297 0 0 0
187 0.44453 161.49673 0.02109 0 0 0
188 0.50429 162.34622 -0.51454 0 0 0
189 0.46808 163.25657 -0.87357 0 0 0
190 0.40787 164.31214 -0.68418 0 0 0
191 0.83814 165.15136 -0.74956 0 0 0
192 0.54084 166.18802 -0.61952 0 0 0
193 0.13340 167.05220 -0.26126 0 0 0
194 -0.42612 167.73233 -0.45648 0 0 0
195 -0.11974 168.65094 -0.62991 0 0 0
196 0.22781 169.58702 -0.30167 0 0 0
197 0.07222 170.46227 0.23112 0 0 0
198 -0.30249 171.17447 0.80821 0 0 0
199 0.21436 171.93431 1.19943 0 0 0
200 0.03244 172.74504 1.52891 0 0 0
201 0.02264 173.64883 1.71609 0 0 0
202 -0.32272 174.72697 1.73878 0 0 0
203 -0.14541 175.47701 1.13616 0 0 0
204 -0.33765 176.42459 1.18297 0 0 0
205 -0.78947 177.22108 1.37284 0 0 0
206 -0.13896 177.86354 1.47912 0 0 0
207 0.31779 178.36265 0.78797 0 0 0
208 -0.29551 179.13225 0.63226 0 0 0
209 -0.63332 180.09187 0.71922 0 0 0
210 -0.26709 180.99213 0.90843 0 0 0
211 0.08595 181.89171 0.92574 0 0 0
212 0.19837 182.87345 0.54478 0 0 0
213 0.34154 183.83285 0.33157 0 0 0
214 0.04474 184.70579 0.58402 0 0 0
215 0.18268 185.69967 0.47398 0 0 0
216 0.34441 186.60896 0.51239 0 0 0
217 -0.04123 187.49739 0.14792 0 0 0