ITEM: TIMESTEP
0
ITEM: NUMBER OF ATOMS
199
ITEM: BOX BOUNDS pp pp pp
-1.0000000000000000e+03 1.0000000000000000e+03
-1.0000000000000000e+03 1.0000000000000000e+03
-1.0000000000000000e+03 1.0000000000000000e+03
ITEM: ATOMS id x y z ix iy iz
1 0.00000 0.00000 0.00000 0 0 0
2 0.00000 0.00000 1.00000 0 0 0
3 0.00000 -0.50000 1.86603 0 0 0
4 0.00000 0.00000 2.73205 0 0 0
5 0.00000 -0.50000 3.59808 0 0 0
6 0.00000 0.00000 4.46410 0 0 0
7 0.00000 -0.50000 5.33013 0 0 0
8 0.00000 0.00000 6.19615 0 0 0
9 0.00000 -0.50000 7.06218 0 0 0
10 0.00000 0.00000 7.92820 0 0 0
11 0.00000 -0.50000 8.79423 0 0 0
12 0.00000 0.00000 9.66025 0 0 0
13 0.00000 -0.50000 10.52628 0 0 0
14 0.00000 0.00000 11.39230 0 0 0
15 0.00000 -0.50000 12.25833 0 0 0
16 0.00000 0.00000 13.12436 0 0 0
17 0.00000 -0.50000 13.99038 0 0 0
18 0.00000 0.00000 14.85641 0 0 0
19 0.00000 -0.50000 15.72243 0 0 0
20 0.00000 0.00000 16.58846 0 0 0
21 0.00000 -0.50000 17.45448 0 0 0
22 0.00000 0.00000 18.32051 0 0 0
23 0.00000 -0.50000 19.18653 0 0 0
24 0.00000 0.00000 20.05256 0 0 0
25 0.00000 -0.50000 20.91858 0 0 0
26 0.00000 0.00000 21.78461 0 0 0
27 0.00000 -0.50000 22.65064 0 0 0
28 0.00000 0.00000 23.51666 0 0 0
29 0.00000 -0.50000 24.38269 0 0 0
30 0.00000 0.00000 25.24871 0 0 0
31 0.00000 -0.50000 26.11474 0 0 0
32 0.00000 0.00000 26.98076 0 0 0
33 0.00000 -0.50000 27.84679 0 0 0
34 0.00000 0.00000 28.71281 0 0 0
35 0.00000 -0.50000 29.57884 0 0 0
36 0.00000 0.00000 30.44486 0 0 0
37 0.00000 -0.50000 31.31089 0 0 0
38 0.00000 0.00000 32.17691 0 0 0
39 0.00000 -0.50000 33.04294 0 0 0
40 0.00000 0.00000 33.90897 0 0 0
41 0.00000 -0.50000 34.77499 0 0 0
42 0.00000 0.00000 35.64102 0 0 0
43 0.00000 -0.50000 36.50704 0 0 0
44 0.00000 0.00000 37.37307 0 0 0
45 0.00000 -0.50000 38.23909 0 0 0
46 0.00000 0.00000 39.10512 0 0 0
47 0.00000 -0.50000 39.97114 0 0 0
48 0.00000 0.00000 40.83717 0 0 0
49 0.00000 -0.50000 41.70319 0 0 0
50 0.00000 0.00000 42.56922 0 0 0
51 0.00000 -0.50000 43.43524 0 0 0
52 0.00000 0.00000 44.30127 0 0 0
53 0.00000 -0.50000 45.16730 0 0 0
54 0.00000 0.00000 46.03332 0 0 0
55 0.00000 -0.50000 46.89935 0 0 0
56 0.00000 0.00000 47.76537 0 0 0
57 0.00000 -0.50000 48.63140 0 0 0
58 0.00000 0.00000 49.49742 0 0 0
59 0.00000 -0.50000 50.36345 0 0 0
60 0.00000 0.00000 51.22947 0 0 0
61 0.00000 -0.50000 52.09550 0 0 0
62 0.00000 0.00000 52.96152 0 0 0
63 0.00000 -0.50000 53.82755 0 0 0
64 0.00000 0.00000 54.69358 0 0 0
65 0.00000 -0.50000 55.55960 0 0 0
66 0.00000 0.00000 56.42563 0 0 0
67 0.00000 -0.50000 57.29165 0 0 0
68 -0.80611 -0.47589 57.88292 0 0 0
69 -1.61223 -0.75065 58.40703 0 0 0
70 -2.41834 -0.43414 58.90703 0 0 0
71 -3.22446 -0.70890 59.43113 0 0 0
72 -4.03057 -0.39239 59.93113 0 0 0
73 -4.83669 -0.66714 60.45524 0 0 0
74 -5.64280 -0.35063 60.95524 0 0 0
75 -6.44892 -0.62539 61.47934 0 0 0
76 -7.25503 -0.30888 61.97934 0 0 0
77 -8.06115 -0.58364 62.50345 0 0 0
78 -8.86726 -0.26713 63.00345 0 0 0
79 -9.67338 -0.54188 63.52756 0 0 0
80 -10.47949 -0.22537 64.02756 0 0 0
81 -11.28561 -0.50013 64.55166 0 0 0
82 -12.09172 -0.18362 65.05166 0 0 0
83 -12.89784 -0.45838 65.57577 0 0 0
84 -13.70395 -0.14187 66.07577 0 0 0
85 -14.51006 -0.41662 66.59988 0 0 0
86 -15.31618 -0.10011 67.09988 0 0 0
87 -16.12229 -0.37487 67.62398 0 0 0
88 -16.92841 -0.05836 68.12398 0 0 0
89 -17.73452 -0.33312 68.64809 0 0 0
90 -18.54064 -0.01660 69.14809 0 0 0
91 -19.34675 -0.29136 69.67220 0 0 0
92 -20.15287 0.02515 70.17220 0 0 0
93 -20.95898 -0.24961 70.69630 0 0 0
94 -21.76510 0.06690 71.19630 0 0 0
95 -22.57121 -0.20786 71.72041 0 0 0
96 -23.37733 0.10866 72.22041 0 0 0
97 -24.18344 -0.16610 72.74452 0 0 0
98 -24.98956 0.15041 73.24452 0 0 0
99 -25.79567 -0.12435 73.76862 0 0 0
100 -26.60179 0.19216 74.26862 0 0 0
101 -27.40790 -0.08259 74.79273 0 0 0
102 -28.21401 0.23392 75.29273 0 0 0
103 -29.02013 -0.04084 75.81683 0 0 0
104 -29.82624 0.27567 76.31683 0 0 0
105 -30.63236 0.00091 76.84094 0 0 0
106 -31.43847 0.31742 77.34094 0 0 0
107 -32.24459 0.04267 77.86505 0 0 0
108 -33.05070 0.35918 78.36505 0 0 0
109 -33.85682 0.08442 78.88915 0 0 0
110 -34.66293 0.40093 79.38915 0 0 0
111 -35.46905 0.12617 79.91326 0 0 0
112 -36.27516 0.44268 80.41326 0 0 0
113 -37.08128 0.16793 80.93737 0 0 0
114 -37.88739 0.48444 81.43737 0 0 0
115 -38.69351 0.20968 81.96147 0 0 0
116 -39.49962 0.52619 82.46147 0 0 0
117 -40.30573 0.25143 82.98558 0 0 0
118 -41.11185 0.56794 83.48558 0 0 0
119 -41.91796 0.29319 84.00969 0 0 0
120 -42.72408 0.60970 84.50969 0 0 0
121 -43.53019 0.33494 85.03379 0 0 0
122 -44.33631 0.65145 85.53379 0 0 0
123 -45.14242 0.37669 86.05790 0 0 0
124 -45.94854 0.69320 86.55790 0 0 0
125 -46.75465 0.41845 87.08201 0 0 0
126 -47.56077 0.73496 87.58201 0 0 0
127 -48.36688 0.46020 88.10611 0 0 0
128 -49.17300 0.77671 88.60611 0 0 0
129 -49.97911 0.50195 89.13022 0 0 0
130 -50.78523 0.81847 89.63022 0 0 0
131 -51.59134 0.54371 90.15432 0 0 0
132 -52.39746 0.86022 90.65432 0 0 0
133 -53.20357 0.58546 91.17843 0 0 0
134 0.80611 -1.02411 57.56641 0 0 0
135 1.61223 -1.61537 57.54230 0 0 0
136 2.41834 -1.93189 58.04230 0 0 0
137 3.22446 -2.52315 58.01820 0 0 0
138 4.03057 -2.83966 58.51820 0 0 0
139 4.83669 -3.43093 58.49409 0 0 0
140 5.64280 -3.74744 58.99409 0 0 0
141 6.44892 -4.33871 58.96998 0 0 0
142 7.25503 -4.65522 59.46998 0 0 0
143 8.06115 -5.24649 59.44588 0 0 0
144 8.86726 -5.56300 59.94588 0 0 0
145 9.67338 -6.15427 59.92177 0 0 0
146 10.47949 -6.47078 60.42177 0 0 0
147 11.28561 -7.06205 60.39766 0 0 0
148 12.09172 -7.37856 60.89766 0 0 0
149 12.89784 -7.96983 60.87356 0 0 0
150 13.70395 -8.28634 61.37356 0 0 0
151 14.51006 -8.87761 61.34945 0 0 0
152 15.31618 -9.19412 61.84945 0 0 0
153 16.12229 -9.78538 61.82534 0 0 0
154 16.92841 -10.10190 62.32534 0 0 0
155 17.73452 -10.69316 62.30124 0 0 0
156 18.54064 -11.00967 62.80124 0 0 0
157 19.34675 -11.60094 62.77713 0 0 0
158 20.15287 -11.91745 63.27713 0 0 0
159 20.95898 -12.50872 63.25303 0 0 0
160 21.76510 -12.82523 63.75303 0 0 0
161 22.57121 -13.41650 63.72892 0 0 0
162 23.37733 -13.73301 64.22892 0 0 0
163 24.18344 -14.32428 64.20481 0 0 0
164 24.98956 -14.64079 64.70481 0 0 0
165 25.79567 -15.23206 64.68071 0 0 0
166 26.60179 -15.54857 65.18071 0 0 0
167 27.40790 -16.13984 65.15660 0 0 0
168 28.21401 -16.45635 65.65660 0 0 0
169 29.02013 -17.04762 65.63249 0 0 0
170 29.82624 -17.36413 66.13249 0 0 0
171 30.63236 -17.95540 66.10839 0 0 0
172 31.43847 -18.27191 66.60839 0 0 0
173 32.24459 -18.86317 66.58428 0 0 0
174 33.05070 -19.17968 67.08428 0 0 0
175 33.85682 -19.77095 67.06017 0 0 0
176 34.66293 -20.08746 67.56017 0 0 0
177 35.46905 -20.67873 67.53607 0 0 0
178 36.27516 -20.99524 68.03607 0 0 0
179 37.08128 -21.58651 68.01196 0 0 0
180 37.88739 -21.90302 68.51196 0 0 0
181 38.69351 -22.49429 68.48785 0 0 0
182 39.49962 -22.81080 68.98785 0 0 0
183 40.30573 -23.40207 68.96375 0 0 0
184 41.11185 -23.71858 69.46375 0 0 0
185 41.91796 -24.30985 69.43964 0 0 0
186 42.72408 -24.62636 69.93964 0 0 0
187 43.53019 -25.21763 69.91554 0 0 0
188 44.33631 -25.53414 70.41554 0 0 0
189 45.14242 -26.12541 70.39143 0 0 0
190 45.94854 -26.44192 70.89143 0 0 0
191 46.75465 -27.03318 70.86732 0 0 0
192 47.56077 -27.34970 71.36732 0 0 0
193 48.36688 -27.94096 71.34322 0 0 0
194 49.17300 -28.25747 71.84322 0 0 0
195 49.97911 -28.84874 71.81911 0 0 0
196 50.78523 -29.16525 72.31911 0 0 0
197 51.59134 -29.75652 72.29500 0 0 0
198 52.39746 -30.07303 72.79500 0 0 0
199 53.20357 -30.66430 72.77090 0 0 0
ITEM: TIMESTEP
1000
ITEM: NUMBER OF ATOMS
199
ITEM: BOX BOUNDS pp pp pp
-1.0000000000000000e+03 1.0000000000000000e+03
-1.0000000000000000e+03 1.0000000000000000e+03
-1.0000000000000000e+03 1.0000000000000000e+03
ITEM: ATOMS id x y z ix iy iz
1 1.01689 -0.74242 3.49246 0 0 0
2 0.34500 -0.63216 4.17022 0 0 0
3 0.35779 0.32686 4.47000 0 0 0
4 0.95838 -0.35339 5.07161 0 0 0
5 1.84527 -0.07947 5.52382 0 0 0
6 2.58187 -0.30127 6.21333 0 0 0
7 3.05540 -0.54221 6.96478 0 0 0
8 2.26350 -0.94547 7.42344 0 0 0
9 1.70613 -1.42019 8.19349 0 0 0
10 1.75813 -1.00779 9.01741 0 0 0
11 1.36875 -0.53578 9.83819 0 0 0
12 0.57863 -0.00399 10.15345 0 0 0
13 0.42177 0.49039 11.09717 0 0 0
14 0.08559 0.90313 12.03502 0 0 0
15 -0.40511 1.39378 12.70437 0 0 0
16 -0.54778 0.99390 13.73744 0 0 0
17 -0.93482 0.54052 14.53815 0 0 0
18 -0.91721 0.97373 15.56319 0 0 0
19 -0.67408 0.96667 16.58559 0 0 0
20 -0.12116 1.04715 17.40636 0 0 0
21 0.32816 0.83776 18.21746 0 0 0
22 -0.01451 0.74903 19.09245 0 0 0
23 0.03255 1.04325 20.00545 0 0 0
24 0.54976 1.57420 20.64640 0 0 0
25 0.65731 1.42243 21.59551 0 0 0
26 0.79051 1.91273 22.51193 0 0 0
27 0.38477 1.15225 22.80105 0 0 0
28 -0.07255 1.26425 23.75076 0 0 0
29 -0.01681 0.81082 24.59565 0 0 0
30 -0.62178 0.86445 25.37804 0 0 0
31 -1.00624 0.60949 26.21643 0 0 0
32 -1.56961 0.39665 26.96256 0 0 0
33 -1.62763 0.66961 27.90891 0 0 0
34 -1.46326 0.45790 28.89008 0 0 0
35 -1.62482 0.09537 29.77002 0 0 0
36 -1.78634 0.15241 30.67783 0 0 0
37 -2.11046 -0.01915 31.60449 0 0 0
38 -2.25384 0.10572 32.58745 0 0 0
39 -2.06652 -0.04540 33.60163 0 0 0
40 -2.35216 -0.56161 34.47415 0 0 0
41 -2.21218 -0.73152 35.50217 0 0 0
42 -1.93291 -0.40687 36.48630 0 0 0
43 -1.84974 -0.38942 37.52545 0 0 0
44 -1.75679 0.11240 38.34716 0 0 0
45 -1.48459 0.16115 39.36009 0 0 0
46 -1.11673 0.12265 40.21225 0 0 0
47 -1.32273 0.16998 41.17044 0 0 0
48 -1.43401 0.15629 42.10414 0 0 0
49 -1.01144 0.22599 42.99281 0 0 0
50 -0.74232 0.79598 43.82024 0 0 0
51 -0.98054 1.17001 44.76477 0 0 0
52 -0.94502 1.45806 45.72062 0 0 0
53 -0.80306 0.80823 46.57860 0 0 0
54 -0.45108 0.40824 47.42704 0 0 0
55 -0.53702 1.02679 48.13185 0 0 0
56 -0.97759 0.84468 48.99384 0 0 0
57 -0.46809 0.47011 49.81347 0 0 0
58 -0.48640 0.71473 50.83627 0 0 0
59 -0.30546 0.80375 51.74817 0 0 0
60 0.17223 0.31387 52.51335 0 0 0
61 0.35811 0.13192 53.50996 0 0 0
62 0.29737 0.59691 54.42796 0 0 0
63 -0.28790 0.27928 55.20210 0 0 0
64 -0.61856 -0.13076 56.06404 0 0 0
65 -0.90066 -0.61490 56.98691 0 0 0
66 -0.41337 -0.52881 57.99305 0 0 0
67 0.05327 -0.65889 58.88216 0 0 0
68 -0.83096 -0.43329 59.13864 0 0 0
69 -1.71803 -0.78720 59.41227 0 0 0
70 -2.54848 -0.83063 59.89474 0 0 0
71 -3.44906 -0.72782 60.24231 0 0 0
72 -4.16107 -0.26619 60.93282 0 0 0
73 -4.96729 -0.04355 61.49151 0 0 0
74 -5.72920 -0.26961 62.12564 0 0 0
75 -6.64623 -0.13630 62.33024 0 0 0
76 -7.41504 -0.43381 62.92202 0 0 0
77 -8.26855 -0.48501 63.43512 0 0 0
78 -8.80379 -0.71759 64.22941 0 0 0
79 -9.11201 -1.24295 64.98784 0 0 0
80 -9.92582 -1.34061 65.45504 0 0 0
81 -10.90728 -1.00673 65.53817 0 0 0
82 -11.69936 -1.00382 66.05041 0 0 0
83 -12.59400 -1.36051 66.41338 0 0 0
84 -13.38658 -1.00517 66.84473 0 0 0
85 -14.29093 -1.09992 67.19843 0 0 0
86 -15.19664 -1.28675 67.51186 0 0 0
87 -15.82579 -0.57783 68.05501 0 0 0
88 -16.74048 -0.46027 68.41314 0 0 0
89 -17.59606 -0.58854 68.80352 0 0 0
90 -18.56012 -0.85316 68.90401 0 0 0
91 -19.33485 -0.84654 69.52663 0 0 0
92 -20.03683 -1.54248 69.95202 0 0 0
93 -20.91362 -1.81812 70.32988 0 0 0
94 -21.69773 -1.40175 70.75094 0 0 0
95 -22.67918 -1.46632 70.98890 0 0 0
96 -23.46895 -1.48193 71.64374 0 0 0
97 -24.25826 -1.33948 72.29800 0 0 0
98 -25.09834 -1.11876 72.66721 0 0 0
99 -25.75988 -1.31970 73.34735 0 0 0
100 -26.71354 -1.38398 73.55055 0 0 0
101 -27.50788 -1.20999 74.06620 0 0 0
102 -27.55599 -0.87256 74.98380 0 0 0
103 -28.27599 -0.91925 75.61754 0 0 0
104 -29.16443 -0.65380 76.10336 0 0 0
105 -30.11560 -0.70949 75.69966 0 0 0
106 -30.45457 -0.31488 76.53212 0 0 0
107 -31.12601 0.48644 76.83470 0 0 0
108 -31.84221 1.00906 77.18664 0 0 0
109 -32.50339 1.54391 77.62982 0 0 0
110 -33.24918 1.27533 78.21683 0 0 0
111 -34.09717 0.86486 78.37793 0 0 0
112 -34.91891 0.61652 78.72720 0 0 0
113 -35.81326 0.10975 78.87329 0 0 0
114 -36.74508 0.01664 78.90910 0 0 0
115 -37.29511 0.72728 79.14835 0 0 0
116 -38.20910 0.54597 79.61441 0 0 0
117 -38.76669 0.52339 80.41173 0 0 0
118 -39.73935 0.18371 80.67650 0 0 0
119 -40.64405 -0.17381 80.60401 0 0 0
120 -41.30444 -0.26421 81.29712 0 0 0
121 -42.05456 -0.01344 81.87672 0 0 0
122 -42.72978 -0.10572 82.70567 0 0 0
123 -43.53609 -0.19490 83.27416 0 0 0
124 -44.13645 0.06829 84.00830 0 0 0
125 -44.94916 0.60077 84.01079 0 0 0
126 -44.67571 1.23552 84.70678 0 0 0
127 -45.39509 0.64539 85.00948 0 0 0
128 -46.32768 0.84165 84.53309 0 0 0
129 -47.09588 1.11696 84.99727 0 0 0
130 -47.76333 0.99814 85.75993 0 0 0
131 -47.68362 0.28498 86.43043 0 0 0
132 -47.69995 -0.13334 87.38598 0 0 0
133 -47.84922 -0.89757 87.99819 0 0 0
134 0.99342 -0.97001 59.04783 0 0 0
135 1.80589 -1.23273 59.45076 0 0 0
136 2.59133 -1.73954 59.64335 0 0 0
137 3.43365 -2.35024 59.85680 0 0 0
138 3.89290 -3.01916 60.38884 0 0 0
139 4.72705 -3.55429 60.18641 0 0 0
140 5.58430 -4.04731 60.17342 0 0 0
141 6.59820 -4.20251 60.08518 0 0 0
142 7.22779 -4.69745 60.78002 0 0 0
143 8.24379 -4.79289 61.01922 0 0 0
144 9.08403 -5.31923 60.63096 0 0 0
145 9.91136 -5.69772 60.37386 0 0 0
146 10.50551 -6.34761 60.78925 0 0 0
147 11.20589 -6.95883 61.13937 0 0 0
148 12.19186 -7.15955 61.14111 0 0 0
149 12.66090 -8.02666 61.34754 0 0 0
150 13.28444 -8.66584 61.71265 0 0 0
151 13.77568 -9.39592 61.30046 0 0 0
152 14.58432 -9.86842 60.96460 0 0 0
153 15.54869 -10.10932 61.05320 0 0 0
154 16.38023 -10.54570 61.42334 0 0 0
155 16.98757 -11.08856 61.96194 0 0 0
156 17.47175 -11.30598 62.72055 0 0 0
157 18.37522 -11.47213 62.87864 0 0 0
158 19.18931 -11.99014 62.79414 0 0 0
159 20.01787 -12.59888 62.74239 0 0 0
160 20.78754 -13.10650 62.77456 0 0 0
161 21.39435 -13.90806 63.07447 0 0 0
162 22.20545 -14.40879 63.18412 0 0 0
163 23.07731 -14.89121 63.55470 0 0 0
164 23.54294 -15.27900 64.34728 0 0 0
165 24.37585 -15.59563 64.79546 0 0 0
166 24.93212 -16.26580 64.40404 0 0 0
167 25.73178 -16.77994 64.54806 0 0 0
168 26.56859 -17.12586 64.82681 0 0 0
169 27.40226 -17.36987 65.37650 0 0 0
170 28.06379 -17.86710 64.99542 0 0 0
171 28.82453 -18.13314 65.52210 0 0 0
172 29.12787 -18.52195 66.40690 0 0 0
173 29.90585 -19.03241 66.13600 0 0 0
174 30.69371 -19.47445 66.58889 0 0 0
175 31.48917 -19.20675 67.13999 0 0 0
176 32.43078 -19.53491 67.04714 0 0 0
177 32.67186 -19.83582 68.00710 0 0 0
178 33.61316 -20.05669 68.32191 0 0 0
179 34.48527 -20.66459 68.31290 0 0 0
180 35.26194 -21.41996 68.41831 0 0 0
181 36.05751 -21.91343 68.73448 0 0 0
182 36.76249 -22.36024 69.26205 0 0 0
183 36.88825 -23.29646 69.03446 0 0 0
184 37.80350 -23.55541 68.79359 0 0 0
185 38.68266 -23.38211 69.12738 0 0 0
186 39.19339 -24.23248 68.94649 0 0 0
187 39.98251 -24.80739 68.96501 0 0 0
188 40.49918 -25.51037 68.60033 0 0 0
189 41.17823 -25.91391 69.21038 0 0 0
190 41.76254 -25.60957 69.90316 0 0 0
191 42.52958 -25.02547 70.06292 0 0 0
192 43.51955 -24.92789 70.38237 0 0 0
193 44.02665 -25.04764 71.15285 0 0 0
194 44.58206 -25.04079 71.98877 0 0 0
195 45.17358 -25.04827 71.15219 0 0 0
196 45.43752 -25.98474 71.16717 0 0 0
197 46.38001 -26.35914 71.07809 0 0 0
198 46.88956 -26.80661 71.84826 0 0 0
199 46.83291 -27.49623 72.56970 0 0 0
ITEM: TIMESTEP
2000
ITEM: NUMBER OF ATOMS
199
ITEM: BOX BOUNDS pp pp pp
-1.0000000000000000e+03 1.0000000000000000e+03
-1.0000000000000000e+03 1.0000000000000000e+03
-1.0000000000000000e+03 1.0000000000000000e+03
ITEM: ATOMS id x y z ix iy iz
1 -2.56422 -1.31667 7.47358 0 0 0
2 -1.77320 -0.97660 7.08912 0 0 0
3 -0.76301 -0.64571 6.96150 0 0 0
4 -0.11825 -0.61810 7.73361 0 0 0
5 -0.43840 -0.13385 8.51799 0 0 0
6 -0.10346 0.66020 9.03684 0 0 0
7 0.68919 0.98665 9.59447 0 0 0
8 0.44597 0.31984 10.29029 0 0 0
9 1.30560 -0.21297 10.46544 0 0 0
10 1.47919 0.76058 10.66429 0 0 0
11 1.36156 1.46254 11.32839 0 0 0
12 1.38706 1.05369 12.20086 0 0 0
13 1.86608 0.54009 12.91834 0 0 0
14 1.01438 0.23064 13.27445 0 0 0
15 0.38843 -0.34849 13.75841 0 0 0
16 -0.18655 0.08235 14.52255 0 0 0
17 0.09295 0.19736 15.48502 0 0 0
18 0.45707 0.31695 16.39554 0 0 0
19 0.98088 0.34393 17.22766 0 0 0
20 1.08726 0.29480 18.24506 0 0 0
21 0.44142 0.58950 18.94947 0 0 0
22 0.57514 0.28890 19.92145 0 0 0
23 1.06766 0.43657 20.76291 0 0 0
24 1.53855 0.92560 21.44715 0 0 0
25 1.19687 0.53096 22.27499 0 0 0
26 0.64857 0.13585 22.92599 0 0 0
27 0.34219 -0.35628 23.78015 0 0 0
28 0.58135 -0.17016 24.73476 0 0 0
29 1.00899 -0.11018 25.59507 0 0 0
30 0.77044 -0.31671 26.55715 0 0 0
31 0.45168 0.03233 27.48804 0 0 0
32 0.25407 0.52411 28.30820 0 0 0
33 -0.06999 0.45897 29.28299 0 0 0
34 -0.20422 -0.06706 30.08565 0 0 0
35 -0.38073 -0.55125 30.94529 0 0 0
36 -0.77232 -0.58626 31.81708 0 0 0
37 -0.65754 -0.85777 32.72769 0 0 0
38 -0.74171 -0.93633 33.86807 0 0 0
39 -1.23332 -0.59809 34.60860 0 0 0
40 -1.39297 -0.40631 35.53725 0 0 0
41 -1.10461 -0.41863 36.47753 0 0 0
42 -1.09086 -0.49012 37.46493 0 0 0
43 -1.68553 -0.25540 38.18602 0 0 0
44 -1.75158 -0.44936 39.27302 0 0 0
45 -1.84510 0.03373 40.16776 0 0 0
46 -2.26385 -0.15994 41.05460 0 0 0
47 -2.64492 0.00744 41.91076 0 0 0
48 -2.63959 -0.47182 42.75096 0 0 0
49 -2.48633 -0.22532 43.66494 0 0 0
50 -2.08599 -0.02171 44.47898 0 0 0
51 -1.98182 -0.17800 45.43725 0 0 0
52 -1.59164 -0.21723 46.33187 0 0 0
53 -1.50583 0.09671 47.31141 0 0 0
54 -1.17964 0.20573 48.18375 0 0 0
55 -0.67028 0.57297 49.00180 0 0 0
56 -0.57070 0.36058 49.94764 0 0 0
57 -0.30010 -0.11378 50.75460 0 0 0
58 -0.47058 -0.63886 51.57809 0 0 0
59 -0.41027 -0.93138 52.52746 0 0 0
60 -0.35174 -0.89641 53.50439 0 0 0
61 -0.62481 -0.70350 54.47211 0 0 0
62 -1.43378 -1.00780 54.93573 0 0 0
63 -1.27977 -0.31118 55.52005 0 0 0
64 -1.74379 0.02814 56.38056 0 0 0
65 -1.22560 -0.06364 57.15222 0 0 0
66 -0.54633 0.22294 57.86416 0 0 0
67 -0.38211 -0.48833 58.46379 0 0 0
68 -0.31728 -0.53167 59.38543 0 0 0
69 -0.49875 -1.45999 59.74831 0 0 0
70 -1.38478 -1.65680 60.09813 0 0 0
71 -2.05001 -1.71252 60.79006 0 0 0
72 -2.46461 -1.13942 61.47893 0 0 0
73 -3.22619 -0.69345 61.92497 0 0 0
74 -4.19371 -0.58226 61.87986 0 0 0
75 -4.87638 -0.50703 62.67641 0 0 0
76 -5.81238 -0.60499 62.98176 0 0 0
77 -6.81252 -0.56702 63.43447 0 0 0
78 -7.58812 -1.12790 63.70955 0 0 0
79 -8.49327 -1.61879 63.77136 0 0 0
80 -9.28111 -1.73811 64.43920 0 0 0
81 -10.00478 -1.28421 64.89753 0 0 0
82 -10.73827 -1.20856 65.48108 0 0 0
83 -11.23291 -1.64196 66.36691 0 0 0
84 -12.15630 -1.58717 66.56873 0 0 0
85 -12.54557 -1.85020 67.51046 0 0 0
86 -13.34345 -2.25875 67.94941 0 0 0
87 -14.18928 -1.94195 68.34297 0 0 0
88 -15.09060 -1.92999 68.80553 0 0 0
89 -16.10041 -1.78206 69.05101 0 0 0
90 -16.79802 -1.75377 69.66062 0 0 0
91 -17.58561 -2.43613 69.90856 0 0 0
92 -18.39690 -2.75840 70.24088 0 0 0
93 -19.42789 -2.47528 70.35114 0 0 0
94 -20.17806 -2.26025 70.84599 0 0 0
95 -20.62727 -1.41786 71.06197 0 0 0
96 -20.94513 -1.00514 71.97708 0 0 0
97 -21.94798 -1.02274 72.21696 0 0 0
98 -22.78101 -1.03668 72.69486 0 0 0
99 -23.66441 -0.81644 73.17989 0 0 0
100 -24.51052 -1.09007 73.54323 0 0 0
101 -25.17560 -1.61990 74.06937 0 0 0
102 -25.94247 -1.69001 74.72916 0 0 0
103 -26.83309 -1.51576 75.02567 0 0 0
104 -27.39119 -1.73655 75.77853 0 0 0
105 -28.30190 -2.10382 76.07681 0 0 0
106 -29.27527 -1.84395 76.23116 0 0 0
107 -29.76066 -2.10193 77.01912 0 0 0
108 -30.30780 -2.20093 77.78797 0 0 0
109 -31.08235 -1.92655 78.45561 0 0 0
110 -31.79735 -1.29648 78.57696 0 0 0
111 -32.73278 -0.95191 78.62567 0 0 0
112 -33.44525 -0.29085 78.38424 0 0 0
113 -34.30172 -0.06409 78.73963 0 0 0
114 -35.16732 -0.42311 78.12312 0 0 0
115 -35.94323 0.13200 78.25016 0 0 0
116 -36.77195 0.39674 78.07540 0 0 0
117 -37.64854 0.66217 77.87914 0 0 0
118 -38.48494 0.07770 78.14426 0 0 0
119 -38.59359 -0.18326 79.09739 0 0 0
120 -38.78338 -0.52244 80.02787 0 0 0
121 -39.16966 -0.94802 80.98853 0 0 0
122 -39.95850 -1.14703 81.48984 0 0 0
123 -39.73704 -0.47180 82.19062 0 0 0
124 -40.30452 -0.66021 82.94759 0 0 0
125 -41.37296 -0.78489 82.84735 0 0 0
126 -42.02805 -0.25631 83.36450 0 0 0
127 -42.36798 0.10877 84.18310 0 0 0
128 -41.88687 0.94745 84.30787 0 0 0
129 -42.45757 1.63159 84.67394 0 0 0
130 -42.54300 1.07454 85.44348 0 0 0
131 -42.40910 1.90810 85.97351 0 0 0
132 -42.98113 2.73347 85.75559 0 0 0
133 -42.62930 2.74804 84.71667 0 0 0
134 0.59723 -0.67682 58.35195 0 0 0
135 1.14881 -1.58290 58.16668 0 0 0
136 2.19856 -1.89616 58.02944 0 0 0
137 3.06584 -2.05215 58.56898 0 0 0
138 3.99833 -2.13203 58.23052 0 0 0
139 4.81006 -2.17560 58.84650 0 0 0
140 5.17010 -3.04342 59.21920 0 0 0
141 5.89217 -3.77298 59.37196 0 0 0
142 6.76608 -4.11350 59.56625 0 0 0
143 7.73309 -4.53552 59.51726 0 0 0
144 8.34097 -5.29758 59.89177 0 0 0
145 8.51152 -6.03916 60.54608 0 0 0
146 9.19653 -6.50913 61.13369 0 0 0
147 9.90644 -7.16179 61.26551 0 0 0
148 10.43684 -7.94753 61.64135 0 0 0
149 11.09776 -8.44530 62.19062 0 0 0
150 11.94821 -8.84206 62.57405 0 0 0
151 12.80279 -9.34104 62.64721 0 0 0
152 13.76052 -9.39690 62.48765 0 0 0
153 14.61508 -9.72757 62.72113 0 0 0
154 15.36999 -9.61490 62.06836 0 0 0
155 16.18653 -10.06754 62.31271 0 0 0
156 16.81061 -10.34643 62.96485 0 0 0
157 17.31887 -11.20220 62.82960 0 0 0
158 18.30392 -11.58437 62.77043 0 0 0
159 19.32509 -11.94400 62.70464 0 0 0
160 19.80325 -12.79856 62.92610 0 0 0
161 20.58223 -13.43452 62.77726 0 0 0
162 21.37886 -13.85378 62.44959 0 0 0
163 21.95782 -14.60475 62.54199 0 0 0
164 22.63054 -15.08748 63.08258 0 0 0
165 23.58353 -15.21887 63.20741 0 0 0
166 24.54556 -15.47239 63.33602 0 0 0
167 25.35436 -15.95971 63.72751 0 0 0
168 26.19908 -15.85089 64.26259 0 0 0
169 26.74314 -16.37859 64.91457 0 0 0
170 27.69236 -16.50658 64.56400 0 0 0
171 28.40495 -16.46893 65.18772 0 0 0
172 29.31788 -16.85630 65.20044 0 0 0
173 30.15779 -16.58732 65.53329 0 0 0
174 30.70054 -17.21263 66.06336 0 0 0
175 31.39648 -17.93306 66.29907 0 0 0
176 31.96536 -18.09372 65.47265 0 0 0
177 32.89045 -18.19594 65.86637 0 0 0
178 33.15702 -19.08530 65.81944 0 0 0
179 33.87747 -19.07534 66.43809 0 0 0
180 33.67405 -19.66628 67.24760 0 0 0
181 34.31132 -20.28104 67.62611 0 0 0
182 35.13493 -20.01684 68.13256 0 0 0
183 35.55182 -20.58578 68.90708 0 0 0
184 35.75221 -20.76941 69.85288 0 0 0
185 36.25616 -21.42986 70.25536 0 0 0
186 36.89756 -21.90873 70.82495 0 0 0
187 37.07775 -22.96786 70.69387 0 0 0
188 37.85232 -23.50963 70.42845 0 0 0
189 38.43202 -23.96311 71.03432 0 0 0
190 39.18386 -24.52537 70.73376 0 0 0
191 39.94328 -24.79468 70.21442 0 0 0
192 40.84981 -24.50690 70.29312 0 0 0
193 41.31556 -25.41110 70.48354 0 0 0
194 42.18047 -25.88179 70.67083 0 0 0
195 43.02894 -25.94590 70.13465 0 0 0
196 43.91224 -26.07391 70.34488 0 0 0
197 44.78860 -25.64189 70.42672 0 0 0
198 44.90501 -25.06935 71.26291 0 0 0
199 44.83779 -25.49247 72.10147 0 0 0
ITEM: TIMESTEP
3000
ITEM: NUMBER OF ATOMS
199
ITEM: BOX BOUNDS pp pp pp
-1.0000000000000000e+03 1.0000000000000000e+03
-1.0000000000000000e+03 1.0000000000000000e+03
-1.0000000000000000e+03 1.0000000000000000e+03
ITEM: ATOMS id x y z ix iy iz
1 0.41228 -0.25117 10.13135 0 0 0
2 -0.51976 -0.10015 9.88265 0 0 0
3 -0.97636 0.81695 9.91572 0 0 0
4 -1.45324 1.34973 10.56487 0 0 0
5 -1.53068 2.28864 10.53054 0 0 0
6 -0.57828 2.45787 10.86376 0 0 0
7 -0.48132 2.40140 11.82685 0 0 0
8 0.43317 2.25554 12.00440 0 0 0
9 0.50940 1.33566 12.15784 0 0 0
10 1.18245 0.69409 11.94288 0 0 0
11 1.60899 0.33145 12.75556 0 0 0
12 2.13464 -0.14712 13.46448 0 0 0
13 2.19637 -0.48444 14.39836 0 0 0
14 2.31523 -0.54977 15.35225 0 0 0
15 2.65561 -0.79518 16.25530 0 0 0
16 2.32441 -1.35285 16.98017 0 0 0
17 3.08608 -1.82531 17.36192 0 0 0
18 2.91029 -1.99458 18.24804 0 0 0
19 3.27128 -2.77898 18.75255 0 0 0
20 2.95699 -3.17696 19.67683 0 0 0
21 2.61012 -2.33048 20.22396 0 0 0
22 2.49117 -1.84264 21.05297 0 0 0
23 2.89565 -1.58130 21.84879 0 0 0
24 2.68468 -1.03055 22.70361 0 0 0
25 2.57496 -1.14961 23.69409 0 0 0
26 2.02379 -0.41543 24.04460 0 0 0
27 1.35277 0.07678 24.73641 0 0 0
28 0.79087 0.66786 25.40438 0 0 0
29 0.53032 0.30842 26.25181 0 0 0
30 0.59245 0.39503 27.20122 0 0 0
31 0.37928 0.51408 28.27726 0 0 0
32 0.15478 0.13006 29.11559 0 0 0
33 -0.25357 0.36338 30.04174 0 0 0
34 -0.94365 0.38639 30.66964 0 0 0
35 -1.13965 0.93658 31.50757 0 0 0
36 -1.81972 1.35832 32.12470 0 0 0
37 -2.12092 0.91734 32.97959 0 0 0
38 -1.70133 0.82142 33.82794 0 0 0
39 -1.24907 0.51351 34.68492 0 0 0
40 -1.95626 0.71647 35.45453 0 0 0
41 -2.17044 0.57121 36.37031 0 0 0
42 -1.82093 0.69747 37.27830 0 0 0
43 -0.93207 0.26936 37.60072 0 0 0
44 -0.77893 -0.20414 38.40069 0 0 0
45 -0.95179 0.19830 39.30299 0 0 0
46 -0.70267 -0.41439 40.05890 0 0 0
47 -0.41764 -0.74223 40.94022 0 0 0
48 -0.17163 -0.82056 41.95652 0 0 0
49 -0.48787 -0.83482 42.84284 0 0 0
50 -0.05033 -1.08837 43.71579 0 0 0
51 0.29650 -1.10221 44.67563 0 0 0
52 0.45573 -1.38333 45.63150 0 0 0
53 0.37549 -1.22854 46.57010 0 0 0
54 0.12038 -0.53845 47.28127 0 0 0
55 0.07356 -0.75029 48.18276 0 0 0
56 0.20011 -0.79738 49.18234 0 0 0
57 0.25350 -0.55397 50.18295 0 0 0
58 0.43784 -0.97390 51.08477 0 0 0
59 0.85418 -0.84055 51.96649 0 0 0
60 0.62048 -1.07273 52.89127 0 0 0
61 0.45955 -0.57763 53.76852 0 0 0
62 0.21259 -0.48719 54.74727 0 0 0
63 0.34989 -0.31524 55.75545 0 0 0
64 -0.10270 0.00148 56.54899 0 0 0
65 0.52136 0.04539 57.25855 0 0 0
66 0.48721 -0.03170 58.27074 0 0 0
67 0.75264 -0.43997 59.08336 0 0 0
68 -0.05212 -0.76875 59.56603 0 0 0
69 -0.99940 -0.61693 59.83423 0 0 0
70 -1.90974 -0.38845 59.85560 0 0 0
71 -2.98489 -0.57668 59.99157 0 0 0
72 -3.81797 -0.16691 60.23232 0 0 0
73 -4.25156 -0.09604 61.14227 0 0 0
74 -4.58315 -0.96911 61.50335 0 0 0
75 -5.33128 -1.24445 62.14653 0 0 0
76 -6.23666 -1.44422 62.41591 0 0 0
77 -6.79002 -1.18769 63.26948 0 0 0
78 -7.46703 -1.15542 63.95166 0 0 0
79 -8.34029 -1.13998 64.44025 0 0 0
80 -9.18751 -0.86634 64.87412 0 0 0
81 -10.14045 -1.13883 65.30183 0 0 0
82 -10.99367 -1.31258 65.82218 0 0 0
83 -11.72468 -1.32890 66.44975 0 0 0
84 -12.52197 -0.97167 66.96993 0 0 0
85 -13.01274 -1.23174 67.83145 0 0 0
86 -13.68583 -1.26252 68.48682 0 0 0
87 -14.54372 -1.75662 68.71148 0 0 0
88 -15.43092 -1.51917 69.00524 0 0 0
89 -16.27797 -0.99503 68.94603 0 0 0
90 -17.15177 -0.67053 69.19417 0 0 0
91 -18.10766 -0.52149 69.51361 0 0 0
92 -18.15223 -1.19199 70.25472 0 0 0
93 -18.91540 -1.56098 70.74157 0 0 0
94 -19.70404 -0.99495 71.12960 0 0 0
95 -20.47186 -1.67599 71.30787 0 0 0
96 -21.15399 -2.30131 70.89099 0 0 0
97 -22.02068 -2.52065 70.64720 0 0 0
98 -22.92231 -2.29017 70.71340 0 0 0
99 -23.85340 -2.42700 70.99987 0 0 0
100 -24.25930 -1.59926 71.27818 0 0 0
101 -25.08327 -1.70804 71.95949 0 0 0
102 -25.08618 -1.97720 72.95990 0 0 0
103 -25.54848 -1.69091 73.82379 0 0 0
104 -26.36808 -1.51615 74.43326 0 0 0
105 -27.02854 -1.35565 75.19750 0 0 0
106 -27.80604 -0.85437 75.45590 0 0 0
107 -28.78075 -1.05410 75.70771 0 0 0
108 -29.37831 -0.26641 75.83341 0 0 0
109 -30.25403 0.01111 75.42611 0 0 0
110 -31.16130 -0.03377 75.08836 0 0 0
111 -32.11377 -0.36755 75.19468 0 0 0
112 -32.52345 -0.98590 75.80949 0 0 0
113 -33.52499 -0.83260 75.71475 0 0 0
114 -34.22020 -0.58587 76.45513 0 0 0
115 -34.92318 -0.79596 77.05280 0 0 0
116 -35.71884 -1.16920 77.51523 0 0 0
117 -36.61121 -0.70842 77.34673 0 0 0
118 -37.40451 -0.42688 77.94743 0 0 0
119 -38.07020 -0.64735 78.57580 0 0 0
120 -38.55661 -0.58129 79.45116 0 0 0
121 -39.41208 -0.19633 79.67808 0 0 0
122 -40.10024 -0.49733 80.26967 0 0 0
123 -39.32548 -0.43104 80.81779 0 0 0
124 -39.24026 0.50913 80.88196 0 0 0
125 -39.18465 1.45925 81.08202 0 0 0
126 -39.33442 2.40317 81.37225 0 0 0
127 -39.98790 3.00801 81.09829 0 0 0
128 -40.80742 3.58227 81.43687 0 0 0
129 -41.75365 3.36325 81.66613 0 0 0
130 -42.13184 2.61471 82.16123 0 0 0
131 -41.71203 2.56926 83.06487 0 0 0
132 -42.49129 2.06051 83.27923 0 0 0
133 -43.43409 1.57887 83.04807 0 0 0
134 1.64964 -0.82860 58.94802 0 0 0
135 2.15167 -1.68625 59.10645 0 0 0
136 2.95292 -2.30446 59.28243 0 0 0
137 3.67255 -2.30751 59.87035 0 0 0
138 4.48360 -2.60883 60.36366 0 0 0
139 5.11156 -3.19448 60.90913 0 0 0
140 5.96679 -3.58046 60.50471 0 0 0
141 6.78169 -3.08845 60.43330 0 0 0
142 7.59419 -3.20143 60.89794 0 0 0
143 8.33342 -3.42844 61.56895 0 0 0
144 9.19664 -3.71423 62.02362 0 0 0
145 9.90898 -4.40014 61.81711 0 0 0
146 10.83534 -4.63891 62.00015 0 0 0
147 11.76245 -4.73020 62.31974 0 0 0
148 12.24439 -5.55463 62.55981 0 0 0
149 12.83654 -6.43043 62.61202 0 0 0
150 13.70697 -6.93067 62.88482 0 0 0
151 14.61574 -7.44094 62.70191 0 0 0
152 15.26619 -7.62593 63.53182 0 0 0
153 15.54905 -8.24295 64.24359 0 0 0
154 16.28647 -8.94383 63.86415 0 0 0
155 16.75579 -9.78412 63.67952 0 0 0
156 17.64942 -10.26459 63.44205 0 0 0
157 17.78479 -11.22594 63.12102 0 0 0
158 18.63619 -11.79159 62.97745 0 0 0
159 19.35195 -12.48508 63.13172 0 0 0
160 20.32776 -12.62481 63.12751 0 0 0
161 21.28246 -12.30745 63.17375 0 0 0
162 22.14381 -12.57493 63.63071 0 0 0
163 23.07386 -13.00248 63.90757 0 0 0
164 24.06181 -13.30468 63.96023 0 0 0
165 24.95864 -13.38153 64.19360 0 0 0
166 25.59066 -14.08163 64.04523 0 0 0
167 25.86698 -14.65179 64.78796 0 0 0
168 26.80842 -14.40590 64.56149 0 0 0
169 27.62139 -14.70161 64.07659 0 0 0
170 28.20156 -15.39313 63.71310 0 0 0
171 28.73123 -16.16245 63.65801 0 0 0
172 29.67516 -16.17972 63.36385 0 0 0
173 30.29240 -15.78792 64.08534 0 0 0
174 31.14404 -16.04150 64.58887 0 0 0
175 31.62683 -16.98858 64.78440 0 0 0
176 32.04110 -17.27869 65.61063 0 0 0
177 32.16530 -17.10435 66.63293 0 0 0
178 32.46532 -17.91051 67.11748 0 0 0
179 32.85201 -18.72504 67.47926 0 0 0
180 32.80957 -19.67689 67.55943 0 0 0
181 32.94412 -20.62624 67.24446 0 0 0
182 33.57322 -20.54994 68.00770 0 0 0
183 34.41097 -20.75052 68.51171 0 0 0
184 35.35060 -21.13785 68.72611 0 0 0
185 36.22682 -21.44951 69.06296 0 0 0
186 36.72076 -22.02143 69.60818 0 0 0
187 36.94018 -22.82945 70.12537 0 0 0
188 37.51870 -23.65680 70.33406 0 0 0
189 37.84070 -23.05889 70.95172 0 0 0
190 38.73586 -23.29441 70.52685 0 0 0
191 39.16999 -23.62659 71.39266 0 0 0
192 39.33170 -24.18888 72.22762 0 0 0
193 39.39127 -25.21305 72.40160 0 0 0
194 40.06444 -25.87949 72.18215 0 0 0
195 40.22043 -24.89900 71.97052 0 0 0
196 41.04966 -24.54302 72.19951 0 0 0
197 41.90369 -24.56702 72.64166 0 0 0
198 41.91601 -23.69475 72.13844 0 0 0
199 41.48059 -23.90426 71.25266 0 0 0
ITEM: TIMESTEP
4000
ITEM: NUMBER OF ATOMS
199
ITEM: BOX BOUNDS pp pp pp