ITEM: TIMESTEP
0
ITEM: NUMBER OF ATOMS
100
ITEM: BOX BOUNDS pp pp pp
-1.0000000000000000e+03 1.0000000000000000e+03
-1.0000000000000000e+03 1.0000000000000000e+03
-1.0000000000000000e+03 1.0000000000000000e+03
ITEM: ATOMS id x y z ix iy iz
1 0.00000 0.00000 0.00000 0 0 0
2 0.00000 0.00000 1.00000 0 0 0
3 0.00000 -0.50000 1.86603 0 0 0
4 0.00000 0.00000 2.73205 0 0 0
5 0.00000 -0.50000 3.59808 0 0 0
6 0.00000 0.00000 4.46410 0 0 0
7 0.00000 -0.50000 5.33013 0 0 0
8 0.00000 0.00000 6.19615 0 0 0
9 0.00000 -0.50000 7.06218 0 0 0
10 0.00000 0.00000 7.92820 0 0 0
11 0.00000 -0.50000 8.79423 0 0 0
12 0.00000 0.00000 9.66025 0 0 0
13 0.00000 -0.50000 10.52628 0 0 0
14 0.00000 0.00000 11.39230 0 0 0
15 0.00000 -0.50000 12.25833 0 0 0
16 0.00000 0.00000 13.12436 0 0 0
17 0.00000 -0.50000 13.99038 0 0 0
18 0.00000 0.00000 14.85641 0 0 0
19 0.00000 -0.50000 15.72243 0 0 0
20 0.00000 0.00000 16.58846 0 0 0
21 0.00000 -0.50000 17.45448 0 0 0
22 0.00000 0.00000 18.32051 0 0 0
23 0.00000 -0.50000 19.18653 0 0 0
24 0.00000 0.00000 20.05256 0 0 0
25 0.00000 -0.50000 20.91858 0 0 0
26 0.00000 0.00000 21.78461 0 0 0
27 0.00000 -0.50000 22.65064 0 0 0
28 0.00000 0.00000 23.51666 0 0 0
29 0.00000 -0.50000 24.38269 0 0 0
30 0.00000 0.00000 25.24871 0 0 0
31 0.00000 -0.50000 26.11474 0 0 0
32 0.00000 0.00000 26.98076 0 0 0
33 0.00000 -0.50000 27.84679 0 0 0
34 0.00000 0.00000 28.71281 0 0 0
35 0.86530 0.28073 29.12808 0 0 0
36 1.73060 0.31622 29.62808 0 0 0
37 2.59589 0.76697 29.84735 0 0 0
38 3.46119 0.80246 30.34735 0 0 0
39 4.32649 1.25321 30.56662 0 0 0
40 5.19179 1.28869 31.06662 0 0 0
41 6.05709 1.73945 31.28589 0 0 0
42 6.92238 1.77493 31.78589 0 0 0
43 7.78768 2.22569 32.00516 0 0 0
44 8.65298 2.26117 32.50516 0 0 0
45 9.51828 2.71193 32.72443 0 0 0
46 10.38358 2.74741 33.22443 0 0 0
47 11.24888 3.19817 33.44370 0 0 0
48 12.11417 3.23365 33.94370 0 0 0
49 12.97947 3.68441 34.16297 0 0 0
50 13.84477 3.71989 34.66297 0 0 0
51 14.71007 4.17065 34.88224 0 0 0
52 15.57537 4.20613 35.38224 0 0 0
53 16.44066 4.65689 35.60151 0 0 0
54 17.30596 4.69237 36.10151 0 0 0
55 18.17126 5.14313 36.32078 0 0 0
56 19.03656 5.17861 36.82078 0 0 0
57 19.90186 5.62937 37.04005 0 0 0
58 20.76715 5.66485 37.54005 0 0 0
59 21.63245 6.11561 37.75932 0 0 0
60 22.49775 6.15109 38.25932 0 0 0
61 23.36305 6.60185 38.47858 0 0 0
62 24.22835 6.63733 38.97858 0 0 0
63 25.09365 7.08809 39.19785 0 0 0
64 25.95894 7.12357 39.69785 0 0 0
65 26.82424 7.57433 39.91712 0 0 0
66 27.68954 7.60981 40.41712 0 0 0
67 28.55484 8.06057 40.63639 0 0 0
68 -0.86530 0.21927 29.16357 0 0 0
69 -1.73060 0.18378 29.66357 0 0 0
70 -2.59589 0.59906 29.94430 0 0 0
71 -3.46119 0.56357 30.44430 0 0 0
72 -4.32649 0.97884 30.72503 0 0 0
73 -5.19179 0.94336 31.22503 0 0 0
74 -6.05709 1.35863 31.50576 0 0 0
75 -6.92238 1.32314 32.00576 0 0 0
76 -7.78768 1.73841 32.28649 0 0 0
77 -8.65298 1.70293 32.78649 0 0 0
78 -9.51828 2.11820 33.06722 0 0 0
79 -10.38358 2.08271 33.56722 0 0 0
80 -11.24888 2.49798 33.84795 0 0 0
81 -12.11417 2.46250 34.34795 0 0 0
82 -12.97947 2.87777 34.62868 0 0 0
83 -13.84477 2.84228 35.12868 0 0 0
84 -14.71007 3.25755 35.40941 0 0 0
85 -15.57537 3.22207 35.90941 0 0 0
86 -16.44066 3.63734 36.19014 0 0 0
87 -17.30596 3.60186 36.69014 0 0 0
88 -18.17126 4.01713 36.97087 0 0 0
89 -19.03656 3.98164 37.47087 0 0 0
90 -19.90186 4.39691 37.75161 0 0 0
91 -20.76715 4.36143 38.25161 0 0 0
92 -21.63245 4.77670 38.53234 0 0 0
93 -22.49775 4.74121 39.03234 0 0 0
94 -23.36305 5.15648 39.31307 0 0 0
95 -24.22835 5.12100 39.81307 0 0 0
96 -25.09365 5.53627 40.09380 0 0 0
97 -25.95894 5.50078 40.59380 0 0 0
98 -26.82424 5.91605 40.87453 0 0 0
99 -27.68954 5.88057 41.37453 0 0 0
100 -28.55484 6.29584 41.65526 0 0 0
ITEM: TIMESTEP
1000
ITEM: NUMBER OF ATOMS
100
ITEM: BOX BOUNDS pp pp pp
-1.0000000000000000e+03 1.0000000000000000e+03
-1.0000000000000000e+03 1.0000000000000000e+03
-1.0000000000000000e+03 1.0000000000000000e+03
ITEM: ATOMS id x y z ix iy iz
1 -2.48237 0.75426 4.14436 0 0 0
2 -1.74505 0.25365 3.97446 0 0 0
3 -0.97634 0.08285 4.56504 0 0 0
4 -0.26946 -0.02736 5.20344 0 0 0
5 -0.47877 0.32175 6.13856 0 0 0
6 -0.75752 -0.36205 6.76532 0 0 0
7 -0.14635 -0.27838 7.50901 0 0 0
8 -0.76390 -0.45312 8.27031 0 0 0
9 -0.93918 -1.27992 8.79424 0 0 0
10 -0.97289 -0.87859 9.69010 0 0 0
11 -1.07594 -0.45579 10.52635 0 0 0
12 -0.86345 -0.11951 11.48614 0 0 0
13 -0.68418 0.05104 12.42409 0 0 0
14 -0.64237 -0.89226 12.68552 0 0 0
15 -0.65381 -1.78174 13.13691 0 0 0
16 -1.02844 -1.76958 14.06056 0 0 0
17 -0.68443 -1.80075 14.94727 0 0 0
18 -1.02393 -1.51745 15.85919 0 0 0
19 -1.54877 -1.66373 16.70726 0 0 0
20 -1.93834 -1.67477 17.59794 0 0 0
21 -1.78448 -1.27616 18.55339 0 0 0
22 -1.14002 -0.68934 18.86268 0 0 0
23 -1.16558 -0.23913 19.77077 0 0 0
24 -0.77531 0.01921 20.61991 0 0 0
25 -0.98466 -0.06571 21.59378 0 0 0
26 -1.22870 0.03779 22.58749 0 0 0
27 -0.87345 0.77049 23.11419 0 0 0
28 -0.57188 0.99049 23.99245 0 0 0
29 -0.70217 0.92488 24.98301 0 0 0
30 -1.02768 1.15713 25.83586 0 0 0
31 -1.08946 1.30442 26.77888 0 0 0
32 -1.52468 1.66530 27.59162 0 0 0
33 -1.85773 2.02265 28.46762 0 0 0
34 -1.66646 2.57988 29.27438 0 0 0
35 -0.83028 2.78595 29.74670 0 0 0
36 0.06232 2.42345 29.99680 0 0 0
37 0.92957 2.13359 30.04579 0 0 0
38 1.56554 2.66467 29.52621 0 0 0
39 2.27346 2.62254 30.16888 0 0 0
40 3.09465 3.02992 30.67645 0 0 0
41 4.03963 2.77366 30.55035 0 0 0
42 4.94899 2.61888 30.89638 0 0 0
43 5.66812 2.37986 31.55928 0 0 0
44 6.55550 2.32400 31.82788 0 0 0
45 7.32778 2.92017 31.67955 0 0 0
46 8.10842 3.31265 32.11868 0 0 0
47 8.84392 3.31646 32.77344 0 0 0
48 9.18780 3.72608 33.54426 0 0 0
49 10.14892 3.51619 33.69337 0 0 0
50 11.05310 3.21601 34.13641 0 0 0
51 11.83792 2.83889 34.52239 0 0 0
52 12.83060 2.79855 34.68476 0 0 0
53 13.78504 2.62370 35.02768 0 0 0
54 14.14256 3.45344 35.47084 0 0 0
55 14.92912 3.45539 36.00275 0 0 0
56 15.84151 3.86784 35.97161 0 0 0
57 16.46998 3.47085 35.27534 0 0 0
58 17.37614 3.10193 35.15488 0 0 0
59 18.21323 3.62985 35.48922 0 0 0
60 18.79360 4.22177 36.01452 0 0 0
61 19.24933 4.53520 36.82293 0 0 0
62 19.66696 5.01427 37.60410 0 0 0
63 19.59532 5.96129 37.84384 0 0 0
64 20.39843 6.26246 37.46093 0 0 0
65 20.55700 7.01692 38.01234 0 0 0
66 20.88761 7.88252 38.04605 0 0 0
67 21.08922 8.72711 37.69033 0 0 0
68 -2.23039 2.31985 29.96760 0 0 0
69 -3.16522 2.11617 29.67506 0 0 0
70 -3.88429 1.91235 30.30279 0 0 0
71 -4.41388 1.93014 31.11140 0 0 0
72 -5.01640 1.24721 31.49291 0 0 0
73 -5.94793 0.74181 31.53154 0 0 0
74 -6.32669 1.03133 32.44886 0 0 0
75 -7.20968 1.43166 32.36497 0 0 0
76 -8.03355 1.86404 32.68428 0 0 0
77 -8.87967 1.99892 33.11007 0 0 0
78 -9.71835 2.13102 32.75060 0 0 0
79 -10.61320 2.41177 32.78787 0 0 0
80 -10.92782 3.21514 33.25940 0 0 0
81 -11.73178 3.79988 33.55213 0 0 0
82 -11.81797 4.71638 33.79139 0 0 0
83 -12.30860 4.76918 34.61388 0 0 0
84 -13.12404 5.02678 35.08699 0 0 0
85 -13.63732 5.29172 35.84448 0 0 0
86 -14.08483 5.17388 36.74565 0 0 0
87 -14.96955 4.80020 37.07343 0 0 0
88 -15.60702 4.13949 37.14533 0 0 0
89 -16.61174 3.99897 37.14590 0 0 0
90 -17.56788 4.12881 37.33124 0 0 0
91 -18.39218 4.66362 37.05965 0 0 0
92 -19.08752 4.58081 37.66753 0 0 0
93 -19.93593 4.41289 38.04538 0 0 0
94 -20.78474 4.66865 38.32376 0 0 0
95 -20.91710 4.89596 39.24826 0 0 0
96 -21.78232 4.55001 38.94652 0 0 0
97 -22.43402 3.95422 38.66806 0 0 0
98 -23.05856 4.13454 39.41441 0 0 0
99 -24.02444 4.04475 39.12389 0 0 0
100 -24.71594 3.24160 39.08942 0 0 0
ITEM: TIMESTEP
2000
ITEM: NUMBER OF ATOMS
100
ITEM: BOX BOUNDS pp pp pp
-1.0000000000000000e+03 1.0000000000000000e+03
-1.0000000000000000e+03 1.0000000000000000e+03
-1.0000000000000000e+03 1.0000000000000000e+03
ITEM: ATOMS id x y z ix iy iz
1 0.43187 -2.77695 7.29218 0 0 0
2 -0.47754 -2.69029 7.46273 0 0 0
3 -0.89852 -2.65154 8.47350 0 0 0
4 -1.08030 -2.37987 9.36143 0 0 0
5 -1.36258 -2.19928 10.24585 0 0 0
6 -1.11191 -1.83393 11.13337 0 0 0
7 -1.70999 -1.10756 11.66774 0 0 0
8 -2.07730 -0.23085 11.91018 0 0 0
9 -2.37267 0.68890 12.01294 0 0 0
10 -3.09384 1.07043 12.56475 0 0 0
11 -2.68727 1.70809 13.15711 0 0 0
12 -2.59579 2.57065 12.77978 0 0 0
13 -1.72773 2.15478 13.11273 0 0 0
14 -0.90623 1.93026 13.68357 0 0 0
15 -0.51534 2.19366 14.49228 0 0 0
16 -1.03774 1.81655 15.27449 0 0 0
17 -0.35438 1.02913 15.37086 0 0 0
18 -0.09262 0.45392 16.13841 0 0 0
19 0.47472 0.28557 16.88429 0 0 0
20 0.35218 0.16945 17.88476 0 0 0
21 -0.23423 0.56301 18.63119 0 0 0
22 -0.64265 0.70354 19.48386 0 0 0
23 -0.15908 0.63344 20.32422 0 0 0
24 -0.40161 -0.25486 20.73304 0 0 0
25 -1.07641 -0.19772 21.50062 0 0 0
26 -1.05945 0.75773 21.66066 0 0 0
27 -0.20694 0.83732 22.27275 0 0 0
28 -0.02513 1.29698 23.18443 0 0 0
29 -0.29890 1.31453 24.08180 0 0 0
30 -0.70598 1.14969 25.01893 0 0 0
31 -0.80149 1.71398 25.85813 0 0 0
32 -0.49909 2.29223 26.55499 0 0 0
33 -0.68619 2.31474 27.63109 0 0 0
34 -1.14844 2.04640 28.49130 0 0 0
35 -0.56289 2.00213 29.23798 0 0 0
36 0.39629 2.17093 29.01068 0 0 0
37 1.29239 2.37134 28.55772 0 0 0
38 2.23862 1.95711 28.69130 0 0 0
39 3.08170 2.42830 28.73741 0 0 0
40 3.75672 2.25198 29.52385 0 0 0
41 4.43302 2.95344 29.34574 0 0 0
42 4.98277 3.33027 30.03855 0 0 0
43 5.37025 2.86522 30.97012 0 0 0
44 6.10578 2.71651 31.47194 0 0 0
45 7.07415 2.82317 31.65813 0 0 0
46 7.51063 2.56843 32.45448 0 0 0
47 8.49323 2.46047 32.75332 0 0 0
48 9.40198 2.72525 32.40707 0 0 0
49 9.94263 2.52287 33.20318 0 0 0
50 10.89457 2.24525 33.11353 0 0 0
51 11.68266 2.65547 32.82283 0 0 0
52 11.78904 3.52413 33.29229 0 0 0
53 12.49403 3.51763 34.01557 0 0 0
54 12.91432 4.00918 33.28657 0 0 0
55 13.81322 3.79308 33.03756 0 0 0
56 14.54026 4.30681 33.36122 0 0 0
57 15.04289 4.08192 34.17218 0 0 0
58 15.83327 3.68146 34.62690 0 0 0
59 16.45489 4.02801 35.32520 0 0 0
60 16.47942 4.92882 35.53491 0 0 0
61 16.75760 5.79744 35.95092 0 0 0
62 16.85025 6.52397 36.69302 0 0 0
63 17.44785 7.07213 37.27644 0 0 0
64 18.31804 7.12458 37.76335 0 0 0
65 18.51362 7.96911 38.01758 0 0 0
66 18.96977 8.62385 37.45856 0 0 0
67 19.14069 8.96683 38.42207 0 0 0
68 -2.04682 2.01012 28.98805 0 0 0
69 -2.97610 2.03424 29.15214 0 0 0
70 -3.90013 1.93381 29.41137 0 0 0
71 -4.85504 2.00709 29.71673 0 0 0
72 -5.48703 2.44867 30.24380 0 0 0
73 -6.11867 3.09385 30.75592 0 0 0
74 -6.67057 3.72801 31.27566 0 0 0
75 -7.27282 4.50189 31.48299 0 0 0
76 -7.74883 4.16755 32.22357 0 0 0
77 -7.97283 4.29464 33.19226 0 0 0
78 -8.55149 4.25006 34.04848 0 0 0
79 -9.37678 4.55349 33.68240 0 0 0
80 -10.29456 4.49549 33.89368 0 0 0
81 -10.32691 5.02542 34.72084 0 0 0
82 -11.15760 5.38106 35.08358 0 0 0
83 -11.99536 5.89281 35.00738 0 0 0
84 -12.36941 6.77843 35.19386 0 0 0
85 -12.94579 6.61775 35.95539 0 0 0
86 -13.91647 6.46439 36.01710 0 0 0
87 -14.07750 5.82981 36.80390 0 0 0
88 -14.48287 4.93713 37.12475 0 0 0
89 -15.15983 4.22028 37.10938 0 0 0
90 -16.02433 3.90526 36.76714 0 0 0
91 -16.38248 3.05944 36.58630 0 0 0
92 -17.11663 2.47692 36.63565 0 0 0
93 -17.93096 2.54740 37.18693 0 0 0
94 -18.73676 3.08049 37.09444 0 0 0
95 -19.21215 3.02970 37.95556 0 0 0
96 -19.54688 3.13331 38.86374 0 0 0
97 -20.17874 3.48147 38.25521 0 0 0
98 -20.88811 3.06866 37.76736 0 0 0
99 -21.79144 3.17239 38.20409 0 0 0
100 -22.43743 2.47795 38.26999 0 0 0
ITEM: TIMESTEP
3000
ITEM: NUMBER OF ATOMS
100
ITEM: BOX BOUNDS pp pp pp
-1.0000000000000000e+03 1.0000000000000000e+03
-1.0000000000000000e+03 1.0000000000000000e+03
-1.0000000000000000e+03 1.0000000000000000e+03
ITEM: ATOMS id x y z ix iy iz
1 -0.21275 -1.62614 6.71469 0 0 0
2 0.31069 -2.24094 7.28825 0 0 0
3 0.27366 -1.35445 7.90410 0 0 0
4 -0.14031 -1.83963 8.62078 0 0 0
5 -0.74489 -1.04755 8.66617 0 0 0
6 -1.18470 -0.62879 9.39274 0 0 0
7 -0.75849 -0.73873 10.30503 0 0 0
8 -0.92580 -1.51784 10.93832 0 0 0
9 -1.20057 -1.24417 11.85230 0 0 0
10 -1.38644 -0.56688 12.62543 0 0 0
11 -1.47685 -0.26589 13.54544 0 0 0
12 -1.09209 -0.54665 14.39744 0 0 0
13 -1.14997 -0.61522 15.32273 0 0 0
14 -1.34148 0.31321 15.11865 0 0 0
15 -1.44604 1.20241 15.70980 0 0 0
16 -0.93249 0.76619 16.36788 0 0 0
17 -0.64440 0.30140 17.14051 0 0 0
18 -0.23439 0.57404 18.03207 0 0 0
19 0.60816 0.41111 18.58031 0 0 0
20 0.24189 0.33910 19.46522 0 0 0
21 -0.38483 1.17036 19.47773 0 0 0
22 -1.08132 0.64545 19.85866 0 0 0
23 -2.13854 0.50007 19.63901 0 0 0
24 -2.38698 0.82941 20.53381 0 0 0
25 -1.96593 1.06142 21.39548 0 0 0
26 -1.67667 1.33141 22.37711 0 0 0
27 -1.13639 1.78442 23.11243 0 0 0
28 -0.61912 1.63213 23.95488 0 0 0
29 -0.81023 1.21701 24.84618 0 0 0
30 -1.46607 1.22218 25.58670 0 0 0
31 -1.09503 1.18030 26.45756 0 0 0
32 -1.24606 1.55347 27.34644 0 0 0
33 -0.90649 1.16989 28.19601 0 0 0
34 -1.38675 1.30942 29.03365 0 0 0
35 -0.45252 1.59418 29.12512 0 0 0
36 0.52273 1.73181 29.55999 0 0 0
37 1.39690 2.09693 29.83870 0 0 0
38 2.22162 2.35062 30.43986 0 0 0
39 3.06640 2.59744 30.94671 0 0 0
40 3.77183 2.60159 31.59307 0 0 0
41 4.28205 1.86031 31.97261 0 0 0
42 5.05519 1.89133 31.32279 0 0 0
43 5.91905 2.31343 31.20539 0 0 0
44 6.75333 2.38941 31.72684 0 0 0
45 7.12312 3.24624 32.07126 0 0 0
46 7.92583 3.88551 31.88824 0 0 0
47 8.92239 4.06231 31.99547 0 0 0
48 9.63852 4.63559 31.97268 0 0 0
49 10.55909 4.28934 32.16289 0 0 0
50 11.48298 3.82785 32.46802 0 0 0
51 12.38243 3.51058 32.43492 0 0 0
52 13.18323 3.97651 32.11459 0 0 0
53 13.49434 3.12228 32.41243 0 0 0
54 13.88647 3.23214 33.28693 0 0 0
55 13.91792 3.34814 34.27722 0 0 0
56 13.99255 4.35754 34.81276 0 0 0
57 14.26309 5.27634 34.42854 0 0 0
58 14.49362 6.19303 33.98831 0 0 0
59 15.19077 6.03090 34.59328 0 0 0
60 15.34381 5.83354 35.59698 0 0 0
61 16.17630 5.96814 36.03482 0 0 0
62 16.91668 6.58678 36.13504 0 0 0
63 17.79631 6.88218 36.42866 0 0 0
64 18.50197 7.35208 36.80356 0 0 0
65 18.09810 8.10387 37.48269 0 0 0
66 17.58741 7.98567 38.31473 0 0 0
67 17.36970 8.92219 38.69826 0 0 0
68 -2.11550 0.72276 29.57941 0 0 0
69 -2.94244 0.39334 29.24287 0 0 0
70 -3.90119 0.68559 29.16367 0 0 0
71 -4.70498 1.19856 29.38354 0 0 0
72 -5.30840 1.77350 29.95474 0 0 0
73 -6.21780 1.45789 30.18233 0 0 0
74 -6.62144 2.07432 30.79448 0 0 0
75 -7.32353 2.75670 30.48529 0 0 0
76 -7.50500 3.25979 31.32449 0 0 0
77 -7.93580 4.15865 31.13712 0 0 0
78 -8.57253 4.45548 31.80181 0 0 0
79 -9.13741 3.85129 32.52538 0 0 0
80 -9.38166 4.16728 33.42256 0 0 0
81 -10.08976 4.54057 33.95877 0 0 0
82 -10.41300 4.50967 34.90574 0 0 0
83 -11.12435 5.12777 35.25192 0 0 0
84 -11.96607 5.53007 35.54235 0 0 0
85 -12.45202 6.41800 35.18469 0 0 0
86 -13.10867 5.71379 35.09139 0 0 0
87 -13.91223 5.22756 35.23538 0 0 0
88 -14.54813 4.56074 35.59262 0 0 0
89 -14.90953 4.27834 36.40939 0 0 0
90 -15.76497 4.35552 37.02933 0 0 0
91 -15.76740 3.41545 36.81735 0 0 0
92 -15.63416 3.32418 35.83475 0 0 0
93 -16.42009 3.11361 35.24995 0 0 0
94 -16.48791 2.80072 36.19986 0 0 0
95 -17.27257 3.30232 36.52265 0 0 0
96 -18.14067 2.92893 36.89201 0 0 0
97 -19.01630 2.81340 36.55773 0 0 0
98 -19.79120 2.11292 36.72072 0 0 0
99 -20.19489 2.67861 37.33579 0 0 0
100 -20.30864 3.56981 37.29896 0 0 0
ITEM: TIMESTEP
4000
ITEM: NUMBER OF ATOMS
100
ITEM: BOX BOUNDS pp pp pp
-1.0000000000000000e+03 1.0000000000000000e+03
-1.0000000000000000e+03 1.0000000000000000e+03
-1.0000000000000000e+03 1.0000000000000000e+03
ITEM: ATOMS id x y z ix iy iz
1 0.30181 0.65811 10.68758 0 0 0
2 -0.32502 0.17210 10.01533 0 0 0
3 0.34619 -0.64369 10.00592 0 0 0
4 0.73388 -1.54319 10.13968 0 0 0
5 0.68375 -2.49507 10.32356 0 0 0
6 0.39422 -2.35341 11.22003 0 0 0
7 -0.44750 -1.95844 11.60791 0 0 0
8 0.10655 -1.27585 12.00804 0 0 0
9 -0.23593 -0.71533 12.73295 0 0 0
10 -0.34169 -0.42785 13.66149 0 0 0
11 0.20674 -0.74092 14.49075 0 0 0
12 0.15818 -1.18223 15.38179 0 0 0
13 -0.76695 -1.16284 15.40466 0 0 0
14 -1.57714 -1.63378 15.53005 0 0 0
15 -2.24426 -0.96682 15.56773 0 0 0
16 -1.92687 -0.44091 16.33109 0 0 0
17 -1.87107 0.06559 17.24668 0 0 0
18 -1.49201 -0.58261 17.84411 0 0 0
19 -1.92363 -0.10681 18.70856 0 0 0
20 -1.51569 0.77312 18.94760 0 0 0
21 -1.23108 0.12644 19.73198 0 0 0
22 -1.60089 -0.26941 20.47648 0 0 0
23 -1.49594 -0.24459 21.47112 0 0 0
24 -1.40609 0.65160 21.89325 0 0 0
25 -1.71593 0.45758 22.75372 0 0 0
26 -1.78531 0.42702 23.70876 0 0 0
27 -1.68685 0.63853 24.67646 0 0 0
28 -1.23968 1.29170 25.29916 0 0 0
29 -1.17794 1.95997 26.09023 0 0 0
30 -1.60926 1.81391 27.01338 0 0 0
31 -1.92317 2.01731 27.95534 0 0 0
32 -0.98328 1.45699 28.02226 0 0 0
33 -0.53693 1.49720 28.86107 0 0 0
34 -0.05265 2.01655 29.48873 0 0 0
35 0.42627 1.51270 30.17853 0 0 0
36 1.02674 1.89301 30.81749 0 0 0
37 1.59224 1.23958 30.33518 0 0 0
38 2.50756 0.95242 30.74327 0 0 0
39 3.34109 1.37813 31.17450 0 0 0
40 3.80090 2.21551 31.16058 0 0 0
41 4.80279 2.10346 30.98399 0 0 0
42 5.71431 2.21736 30.72301 0 0 0
43 6.54774 2.65078 30.32219 0 0 0
44 6.41629 2.80031 31.35535 0 0 0
45 7.33493 3.05975 31.46190 0 0 0
46 8.26796 3.16253 31.21512 0 0 0
47 8.70728 3.19093 32.08980 0 0 0
48 9.31969 2.44515 32.08866 0 0 0
49 10.21311 2.81874 32.03344 0 0 0
50 11.14121 3.05081 31.82587 0 0 0
51 12.03772 3.09173 31.46079 0 0 0
52 13.02549 2.84770 31.25341 0 0 0
53 12.82703 3.45416 32.00836 0 0 0
54 13.69546 3.63329 32.59900 0 0 0
55 13.71024 4.45428 33.15071 0 0 0
56 14.51959 4.96917 33.21855 0 0 0
57 14.78952 5.60714 33.92773 0 0 0
58 15.35481 6.40887 33.84485 0 0 0
59 15.72873 6.89079 34.65715 0 0 0
60 15.49596 6.92753 35.56653 0 0 0
61 16.01686 6.50815 36.34211 0 0 0
62 16.63608 6.68366 37.10259 0 0 0
63 17.44864 7.18434 37.01239 0 0 0
64 18.16389 7.35587 36.39418 0 0 0
65 17.61613 7.95776 35.72040 0 0 0
66 17.60455 8.87130 35.43406 0 0 0
67 17.41457 9.80209 35.00564 0 0 0
68 -0.77213 2.67065 29.42438 0 0 0
69 -1.51330 3.26127 29.84137 0 0 0
70 -2.02653 3.07828 30.71234 0 0 0
71 -2.47496 3.04001 31.58387 0 0 0
72 -3.31451 2.49106 31.72173 0 0 0
73 -3.91710 2.31069 32.49277 0 0 0
74 -4.31756 3.21179 32.48158 0 0 0
75 -5.22625 3.42287 32.81984 0 0 0
76 -5.76370 3.52656 33.65061 0 0 0
77 -6.71033 3.73474 33.86382 0 0 0
78 -7.65440 3.53119 34.19634 0 0 0
79 -8.57314 3.49106 34.24505 0 0 0
80 -9.45598 3.81051 34.23271 0 0 0
81 -10.25206 3.48694 34.86396 0 0 0
82 -10.62341 3.68684 35.70612 0 0 0
83 -11.46988 4.15858 35.61639 0 0 0
84 -12.42851 4.66432 35.79617 0 0 0
85 -12.56213 5.55655 35.96380 0 0 0
86 -13.31194 4.94457 36.24862 0 0 0
87 -13.72724 5.21904 35.43226 0 0 0
88 -14.43636 5.85336 35.49647 0 0 0
89 -14.82327 5.86821 34.55872 0 0 0
90 -15.61154 6.36732 34.47669 0 0 0
91 -15.34896 7.17456 35.10723 0 0 0
92 -16.39979 7.39747 34.93573 0 0 0
93 -16.46021 6.48649 35.17159 0 0 0
94 -16.66745 5.75099 35.84852 0 0 0
95 -17.54992 5.22330 35.98935 0 0 0
96 -18.31553 4.66605 36.15355 0 0 0
97 -18.58364 3.79081 36.47230 0 0 0
98 -18.69454 4.17136 37.38799 0 0 0
99 -18.47979 3.28991 37.83573 0 0 0
100 -17.83287 2.63595 37.39119 0 0 0
ITEM: TIMESTEP
5000
ITEM: NUMBER OF ATOMS
100
ITEM: BOX BOUNDS pp pp pp
-1.0000000000000000e+03 1.0000000000000000e+03
-1.0000000000000000e+03 1.0000000000000000e+03
-1.0000000000000000e+03 1.0000000000000000e+03
ITEM: ATOMS id x y z ix iy iz
1 -0.53799 1.26359 9.19750 0 0 0
2 -0.10109 0.56021 9.62650 0 0 0
3 -0.77147 -0.02030 10.01497 0 0 0
4 -1.07222 0.16585 10.93343 0 0 0
5 -0.05811 0.09282 10.98785 0 0 0
6 0.81928 -0.06190 11.46527 0 0 0
7 1.30035 -0.20226 12.41160 0 0 0
8 1.95057 0.39256 12.85388 0 0 0
9 1.88879 1.35255 13.07382 0 0 0
10 2.12093 1.89491 13.86011 0 0 0
11 2.37465 1.72471 14.78736 0 0 0
12 1.74685 1.18328 15.29235 0 0 0
13 0.80516 0.97609 15.61643 0 0 0
14 0.06421 0.61664 16.13638 0 0 0
15 -0.17643 0.88639 17.04236 0 0 0
16 0.17564 0.04032 17.32563 0 0 0
17 -0.54245 -0.50133 16.90091 0 0 0
18 -1.14418 -0.19308 17.70525 0 0 0
19 -1.25235 0.12554 18.56568 0 0 0
20 -0.43454 0.08141 19.07203 0 0 0
21 0.02256 0.25041 19.95208 0 0 0
22 0.37095 0.65276 20.80643 0 0 0
23 -0.18995 0.56498 21.56990 0 0 0
24 -1.02448 0.95810 21.97767 0 0 0
25 -0.79185 1.21315 22.92726 0 0 0
26 -1.15067 1.91670 23.52979 0 0 0
27 -0.78840 1.79799 24.44601 0 0 0
28 -0.87048 2.24158 25.30614 0 0 0
29 -0.67019 2.53033 26.17103 0 0 0
30 -0.34300 2.06636 27.00056 0 0 0
31 -0.79147 2.08521 27.85414 0 0 0
32 -0.66332 1.70263 28.74620 0 0 0
33 -1.02674 1.18077 29.50942 0 0 0
34 -0.35697 1.31922 30.25353 0 0 0
35 0.31391 0.88422 30.79280 0 0 0
36 1.28165 1.06393 31.07224 0 0 0
37 1.90142 1.58798 30.57521 0 0 0
38 2.79323 1.88476 30.36708 0 0 0
39 3.45590 1.31691 29.92464 0 0 0
40 3.60892 0.94614 30.79751 0 0 0
41 4.18216 0.95531 31.51962 0 0 0
42 5.13278 0.71199 31.58221 0 0 0
43 5.60711 1.03187 32.34824 0 0 0
44 6.35243 1.58249 32.32802 0 0 0
45 7.15552 1.45193 31.78022 0 0 0
46 8.09322 1.12164 31.57503 0 0 0
47 8.63765 1.84308 32.10424 0 0 0
48 9.52361 1.63797 32.27929 0 0 0
49 10.15021 1.84199 32.95617 0 0 0
50 10.54660 2.25944 33.68645 0 0 0
51 11.12471 3.09038 33.47833 0 0 0
52 11.13058 3.43599 32.54023 0 0 0
53 11.99470 3.81976 32.17726 0 0 0
54 12.88613 4.28046 31.69866 0 0 0
55 13.66434 3.81485 32.15073 0 0 0
56 14.51163 4.08535 31.66217 0 0 0
57 14.46300 5.01587 31.91253 0 0 0
58 15.05022 5.58350 32.41317 0 0 0
59 14.61964 6.26983 33.02248 0 0 0
60 15.25979 6.96836 33.17754 0 0 0
61 15.52673 7.82694 33.35831 0 0 0
62 16.40027 8.30306 33.65988 0 0 0
63 16.35431 9.24408 33.85854 0 0 0
64 16.68845 10.02135 34.24084 0 0 0
65 16.29485 10.96934 34.48910 0 0 0
66 16.00369 11.87622 34.76378 0 0 0
67 16.52133 12.68684 34.70121 0 0 0
68 -0.38771 2.10070 30.84413 0 0 0
69 -1.09272 1.90433 31.56433 0 0 0
70 -1.27749 2.22898 32.51961 0 0 0
71 -2.09152 2.82273 32.48177 0 0 0
72 -2.92495 3.32812 32.23501 0 0 0
73 -3.61327 3.92937 32.54888 0 0 0
74 -4.51028 3.59998 32.75080 0 0 0
75 -5.49151 3.35723 32.92449 0 0 0
76 -5.25806 3.52437 33.87582 0 0 0
77 -5.77565 4.18260 33.47880 0 0 0
78 -6.72535 4.00580 33.46401 0 0 0
79 -7.74204 4.19425 33.60029 0 0 0
80 -8.59737 3.76460 33.95081 0 0 0
81 -8.90940 3.77522 34.88643 0 0 0
82 -9.23006 4.66389 35.27081 0 0 0
83 -9.50145 5.51323 35.87604 0 0 0
84 -10.39795 5.81932 35.74714 0 0 0
85 -10.77478 4.97896 35.58731 0 0 0
86 -11.49823 4.68204 35.01615 0 0 0
87 -12.27494 4.03701 35.27832 0 0 0
88 -11.94536 4.50155 36.05806 0 0 0
89 -12.97411 4.57061 36.33796 0 0 0
90 -13.76368 5.00269 35.91529 0 0 0
91 -14.41729 5.20358 35.21206 0 0 0
92 -14.59027 5.49445 36.11530 0 0 0
93 -14.56913 6.49017 36.19374 0 0 0
94 -15.25617 6.38667 36.93648 0 0 0
95 -15.73098 7.25605 36.95923 0 0 0
96 -16.50739 6.84096 37.22303 0 0 0
97 -17.12287 6.38665 36.58158 0 0 0
98 -17.20172 6.92584 35.78178 0 0 0
99 -17.57174 5.90570 35.71406 0 0 0
100 -17.35747 4.95836 35.68674 0 0 0
ITEM: TIMESTEP
6000
ITEM: NUMBER OF ATOMS
100
ITEM: BOX BOUNDS pp pp pp
-1.0000000000000000e+03 1.0000000000000000e+03
-1.0000000000000000e+03 1.0000000000000000e+03
-1.0000000000000000e+03 1.0000000000000000e+03
ITEM: ATOMS id x y z ix iy iz
1 -2.32363 -2.50042 10.63385 0 0 0
2 -1.61507 -3.04094 10.26731 0 0 0
3 -0.96285 -3.45159 10.83225 0 0 0
4 -1.32183 -2.82454 11.45289 0 0 0
5 -0.86530 -2.21421 12.10195 0 0 0
6 -0.85878 -2.01739 13.05287 0 0 0
7 -0.55231 -1.13560 13.13017 0 0 0
8 -0.07749 -0.33676 13.64045 0 0 0
9 0.23542 0.31372 14.44708 0 0 0
10 0.23658 0.62883 15.33412 0 0 0
11 1.17251 0.55164 15.81015 0 0 0
12 1.57624 1.27540 16.41096 0 0 0
13 1.95113 1.66401 17.34342 0 0 0
14 2.38886 1.93147 18.16381 0 0 0
15 2.07498 2.27147 19.08086 0 0 0
16 1.86530 2.44848 20.02044 0 0 0
17 0.87860 2.33747 20.31434 0 0 0
18 0.18685 1.75771 20.47919 0 0 0
19 -0.04992 0.86142 20.81093 0 0 0
20 0.89244 0.94511 21.11408 0 0 0
21 1.46840 1.43582 21.79595 0 0 0
22 1.89764 1.25985 22.61295 0 0 0
23 2.68220 0.96485 23.06275 0 0 0
24 2.23330 0.54815 23.84762 0 0 0
25 2.46858 -0.04906 24.59905 0 0 0
26 2.20915 -0.25160 25.55837 0 0 0
27 2.60129 -0.59065 26.49204 0 0 0
28 2.32344 -0.82930 27.36922 0 0 0
29 2.15213 -0.85234 28.39631 0 0 0
30 1.68379 -0.13179 28.74583 0 0 0
31 2.04799 0.69675 29.29720 0 0 0
32 2.26693 1.73515 29.15993 0 0 0
33 1.60375 2.43235 29.17883 0 0 0
34 1.88809 2.85748 30.09161 0 0 0
35 2.84609 2.94178 29.87126 0 0 0
36 3.54213 3.58722 30.01505 0 0 0
37 4.14830 2.97388 30.48952 0 0 0
38 4.80813 2.35000 30.99775 0 0 0
39 4.56864 2.73051 31.95338 0 0 0
40 4.62620 1.97900 32.48209 0 0 0
41 5.42805 1.33211 32.44052 0 0 0
42 6.27106 1.08413 31.95976 0 0 0
43 6.96821 0.52655 32.28805 0 0 0
44 7.54580 0.70797 33.07490 0 0 0
45 8.04936 1.53502 32.88525 0 0 0
46 8.83051 1.87718 32.35899 0 0 0
47 9.79656 2.02455 32.52559 0 0 0
48 10.62109 2.06823 32.08462 0 0 0
49 10.71559 1.98193 33.11243 0 0 0
50 10.15416 2.21329 33.87183 0 0 0
51 10.74799 3.00529 34.01312 0 0 0
52 11.57475 3.48805 33.92433 0 0 0
53 12.19086 4.09691 34.41030 0 0 0
54 12.57950 5.00174 34.24856 0 0 0
55 12.59192 5.91987 34.51030 0 0 0
56 12.30629 6.49926 33.72611 0 0 0
57 11.93096 7.30019 33.32846 0 0 0
58 12.55674 8.05965 33.27432 0 0 0
59 13.42548 7.65633 33.58745 0 0 0
60 14.27534 8.11483 33.44127 0 0 0
61 14.52099 8.25746 32.49330 0 0 0
62 13.86622 8.50072 31.74320 0 0 0
63 13.27477 9.04942 32.22110 0 0 0
64 13.46597 10.01900 31.86042 0 0 0
65 13.77652 10.71016 31.26283 0 0 0
66 13.52689 11.60505 31.57343 0 0 0
67 13.29219 12.01965 32.40759 0 0 0
68 1.37386 2.65354 30.84635 0 0 0
69 0.38252 2.32956 30.84461 0 0 0
70 -0.19597 3.22913 30.80474 0 0 0
71 -0.44119 3.95818 31.41205 0 0 0
72 -0.93506 4.22641 30.64948 0 0 0
73 -1.90818 4.01630 30.63220 0 0 0
74 -2.63084 3.50735 31.00288 0 0 0
75 -3.49126 3.95870 31.02643 0 0 0
76 -4.35602 4.31379 31.01786 0 0 0
77 -4.76614 3.66562 31.59411 0 0 0
78 -5.16782 4.39353 32.15203 0 0 0
79 -5.06582 5.17316 32.64837 0 0 0
80 -6.02720 5.25182 32.69082 0 0 0
81 -6.77348 5.30646 33.29527 0 0 0
82 -7.48179 5.31069 34.03410 0 0 0
83 -7.87848 5.28216 34.94391 0 0 0
84 -8.82761 5.45858 35.08293 0 0 0
85 -9.67343 5.97861 34.88392 0 0 0
86 -10.66867 6.24770 35.02199 0 0 0
87 -11.52980 6.64865 35.15804 0 0 0
88 -12.03321 5.87770 34.87032 0 0 0
89 -13.02370 5.52972 34.73523 0 0 0
90 -13.69784 4.92825 34.45887 0 0 0
91 -14.19649 4.07048 34.57558 0 0 0
92 -14.37367 3.19773 34.09025 0 0 0
93 -14.96764 3.51948 34.82553 0 0 0
94 -15.78780 3.53486 35.37557 0 0 0
95 -16.34129 3.93084 36.13547 0 0 0
96 -16.73267 4.78412 36.09379 0 0 0
97 -17.65504 5.00913 35.73190 0 0 0
98 -17.99392 5.75456 35.06568 0 0 0
99 -18.89334 5.95374 35.34561 0 0 0
100 -19.20871 5.99019 36.30898 0 0 0
ITEM: TIMESTEP
7000
ITEM: NUMBER OF ATOMS
100
ITEM: BOX BOUNDS pp pp pp
-1.0000000000000000e+03 1.0000000000000000e+03
-1.0000000000000000e+03 1.0000000000000000e+03
-1.0000000000000000e+03 1.0000000000000000e+03
ITEM: ATOMS id x y z ix iy iz
1 -0.26592 -3.26188 13.79157 0 0 0
2 0.44327 -2.56271 13.93194 0 0 0
3 0.23440 -1.61771 13.70498 0 0 0
4 -0.25163 -0.77906 13.39105 0 0 0
5 -0.90277 -0.15261 13.13047 0 0 0
6 -1.22783 -0.81248 13.74178 0 0 0
7 -0.73877 -0.46964 14.50058 0 0 0
8 -0.05837 -0.84504 15.12743 0 0 0
9 0.37648 -1.33135 15.83046 0 0 0
10 1.24544 -1.01586 15.67033 0 0 0
11 1.29647 -0.35304 16.38269 0 0 0
12 1.66801 0.37732 17.15157 0 0 0
13 2.50889 0.27855 17.68539 0 0 0
14 2.77980 0.90003 18.34044 0 0 0
15 3.39617 1.72647 18.27989 0 0 0
16 4.04592 2.01263 18.95302 0 0 0
17 4.25439 2.83624 19.44455 0 0 0
18 3.95652 3.46376 20.17593 0 0 0
19 3.65892 3.63750 21.11131 0 0 0
20 3.88712 3.25005 21.95365 0 0 0
21 4.66437 3.39201 22.53078 0 0 0
22 5.17105 2.65088 22.97460 0 0 0
23 4.47676 2.14465 23.49004 0 0 0
24 3.98547 1.50382 24.05237 0 0 0
25 3.51174 1.85422 24.84983 0 0 0
26 2.71845 1.49249 25.26018 0 0 0
27 2.06733 0.94260 25.56711 0 0 0
28 2.33463 0.53190 26.35672 0 0 0
29 2.42344 0.34336 27.34530 0 0 0
30 2.02280 0.11754 28.17986 0 0 0
31 1.75587 0.81723 28.78734 0 0 0
32 1.71211 1.72425 28.43340 0 0 0
33 1.87697 2.57852 28.79274 0 0 0
34 2.02190 2.66863 29.83477 0 0 0
35 2.72399 2.22459 30.43260 0 0 0
36 3.65957 2.57497 30.54234 0 0 0
37 4.50924 2.21918 30.18078 0 0 0
38 5.05417 1.51465 30.70245 0 0 0
39 5.90232 1.68543 31.17560 0 0 0
40 6.65714 2.32029 31.38123 0 0 0
41 7.15761 2.08076 32.12659 0 0 0
42 7.05474 1.50331 32.99098 0 0 0
43 7.42532 1.97350 33.69340 0 0 0
44 7.08645 2.90058 33.80698 0 0 0
45 7.47770 2.88022 34.67950 0 0 0
46 7.73279 2.22807 35.35411 0 0 0
47 8.35425 1.63075 35.72240 0 0 0
48 8.81730 2.34727 35.20003 0 0 0
49 8.36982 2.44928 34.36751 0 0 0
50 8.64504 3.27416 33.97926 0 0 0
51 8.31931 4.15538 33.71752 0 0 0
52 8.79924 4.66613 33.01678 0 0 0
53 9.75742 4.41556 33.08335 0 0 0
54 9.60347 5.29068 33.50183 0 0 0
55 9.85200 5.57880 34.44444 0 0 0
56 10.26858 6.29379 35.03961 0 0 0
57 11.20800 6.35910 35.31074 0 0 0
58 11.71471 6.74063 34.53630 0 0 0
59 12.60882 7.09442 34.76671 0 0 0
60 12.13486 7.90877 34.98546 0 0 0
61 12.18744 8.61758 34.10881 0 0 0
62 12.74850 8.93280 33.36067 0 0 0
63 12.94930 9.73021 32.79532 0 0 0
64 13.79106 10.00654 32.30122 0 0 0
65 13.55696 10.81073 31.90389 0 0 0
66 12.69028 11.03044 31.48623 0 0 0
67 12.71344 11.85141 30.80620 0 0 0
68 1.17830 3.23702 30.00620 0 0 0
69 0.50605 2.86439 30.57241 0 0 0
70 -0.04523 3.27074 31.29814 0 0 0
71 -0.72575 3.28251 30.70600 0 0 0
72 -1.49120 3.44300 31.28115 0 0 0
73 -1.90554 3.69826 32.14987 0 0 0
74 -2.14927 4.62213 32.45920 0 0 0
75 -2.16957 5.20130 33.25487 0 0 0
76 -3.13574 5.41687 33.29493 0 0 0
77 -3.85338 5.12910 33.85563 0 0 0
78 -4.73890 5.27865 34.28407 0 0 0
79 -5.67899 5.29092 34.42812 0 0 0
80 -6.66962 5.32153 34.27264 0 0 0
81 -7.04023 5.09500 33.34337 0 0 0
82 -7.84238 4.74014 33.72277 0 0 0
83 -8.59150 4.09115 33.75010 0 0 0
84 -9.10476 4.94897 33.75732 0 0 0
85 -9.84510 5.01276 34.41788 0 0 0
86 -10.59607 5.64830 34.55806 0 0 0
87 -10.83277 5.85476 35.44906 0 0 0
88 -10.30681 5.30021 36.07454 0 0 0
89 -10.62191 4.49842 36.61158 0 0 0
90 -11.17795 3.99563 36.00570 0 0 0
91 -12.07418 3.60550 36.08592 0 0 0
92 -12.74132 3.74597 35.38524 0 0 0
93 -13.35648 4.31439 34.96462 0 0 0
94 -13.76012 3.74827 35.65934 0 0 0
95 -14.55131 4.00081 36.25789 0 0 0
96 -14.14999 4.93462 36.42563 0 0 0
97 -14.83205 5.24518 35.84539 0 0 0
98 -15.70328 5.03542 35.62334 0 0 0
99 -16.45411 5.72227 35.63404 0 0 0
100 -16.51809 5.89708 36.56248 0 0 0
ITEM: TIMESTEP
8000
ITEM: NUMBER OF ATOMS
100
ITEM: BOX BOUNDS pp pp pp