ITEM: TIMESTEP
0
ITEM: NUMBER OF ATOMS
100
ITEM: BOX BOUNDS pp pp pp
-1.0000000000000000e+03 1.0000000000000000e+03
-1.0000000000000000e+03 1.0000000000000000e+03
-1.0000000000000000e+03 1.0000000000000000e+03
ITEM: ATOMS id x y z ix iy iz
1 0.00000 0.00000 0.00000 0 0 0
2 0.00000 1.00000 0.00000 0 0 0
3 0.00000 1.86603 0.50000 0 0 0
4 0.00000 2.73205 0.00000 0 0 0
5 0.00000 3.59808 0.50000 0 0 0
6 0.00000 4.46410 0.00000 0 0 0
7 0.00000 5.33013 0.50000 0 0 0
8 0.00000 6.19615 0.00000 0 0 0
9 0.00000 7.06218 0.50000 0 0 0
10 0.00000 7.92820 0.00000 0 0 0
11 0.00000 8.79423 0.50000 0 0 0
12 0.00000 9.66025 0.00000 0 0 0
13 0.00000 10.52628 0.50000 0 0 0
14 0.00000 11.39230 0.00000 0 0 0
15 0.00000 12.25833 0.50000 0 0 0
16 0.00000 13.12436 0.00000 0 0 0
17 0.00000 13.99038 0.50000 0 0 0
18 0.00000 14.85641 0.00000 0 0 0
19 0.00000 15.72243 0.50000 0 0 0
20 0.00000 16.58846 0.00000 0 0 0
21 0.00000 17.45448 0.50000 0 0 0
22 0.00000 18.32051 0.00000 0 0 0
23 0.00000 19.18653 0.50000 0 0 0
24 0.00000 20.05256 0.00000 0 0 0
25 0.00000 20.91858 0.50000 0 0 0
26 0.00000 21.78461 0.00000 0 0 0
27 0.00000 22.65064 0.50000 0 0 0
28 0.00000 23.51666 0.00000 0 0 0
29 0.00000 24.38269 0.50000 0 0 0
30 0.00000 25.24871 0.00000 0 0 0
31 0.00000 26.11474 0.50000 0 0 0
32 0.00000 26.98076 0.00000 0 0 0
33 0.00000 27.84679 0.50000 0 0 0
34 0.00000 28.71281 0.00000 0 0 0
35 0.00000 29.57884 0.50000 0 0 0
36 0.00000 30.44486 0.00000 0 0 0
37 0.00000 31.31089 0.50000 0 0 0
38 0.00000 32.17691 0.00000 0 0 0
39 0.00000 33.04294 0.50000 0 0 0
40 0.00000 33.90897 0.00000 0 0 0
41 0.00000 34.77499 0.50000 0 0 0
42 0.00000 35.64102 0.00000 0 0 0
43 0.00000 36.50704 0.50000 0 0 0
44 0.00000 37.37307 0.00000 0 0 0
45 0.00000 38.23909 0.50000 0 0 0
46 0.00000 39.10512 0.00000 0 0 0
47 0.00000 39.97114 0.50000 0 0 0
48 0.00000 40.83717 0.00000 0 0 0
49 0.00000 41.70319 0.50000 0 0 0
50 0.00000 42.56922 0.00000 0 0 0
51 0.00000 43.43524 0.50000 0 0 0
52 0.00000 44.30127 0.00000 0 0 0
53 0.00000 45.16730 0.50000 0 0 0
54 0.00000 46.03332 0.00000 0 0 0
55 0.00000 46.89935 0.50000 0 0 0
56 0.00000 47.76537 0.00000 0 0 0
57 0.00000 48.63140 0.50000 0 0 0
58 0.00000 49.49742 0.00000 0 0 0
59 0.00000 50.36345 0.50000 0 0 0
60 0.00000 51.22947 0.00000 0 0 0
61 0.00000 52.09550 0.50000 0 0 0
62 0.00000 52.96152 0.00000 0 0 0
63 0.00000 53.82755 0.50000 0 0 0
64 0.00000 54.69358 0.00000 0 0 0
65 0.00000 55.55960 0.50000 0 0 0
66 0.00000 56.42563 0.00000 0 0 0
67 0.00000 57.29165 0.50000 0 0 0
68 0.00000 58.15768 0.00000 0 0 0
69 0.00000 59.02370 0.50000 0 0 0
70 0.00000 59.88973 0.00000 0 0 0
71 0.00000 60.75575 0.50000 0 0 0
72 0.00000 61.62178 0.00000 0 0 0
73 0.00000 62.48780 0.50000 0 0 0
74 0.00000 63.35383 0.00000 0 0 0
75 0.00000 64.21985 0.50000 0 0 0
76 0.00000 65.08588 0.00000 0 0 0
77 0.00000 65.95191 0.50000 0 0 0
78 0.00000 66.81793 0.00000 0 0 0
79 0.00000 67.68396 0.50000 0 0 0
80 0.00000 68.54998 0.00000 0 0 0
81 0.00000 69.41601 0.50000 0 0 0
82 0.00000 70.28203 0.00000 0 0 0
83 0.00000 71.14806 0.50000 0 0 0
84 0.00000 72.01408 0.00000 0 0 0
85 0.00000 72.88011 0.50000 0 0 0
86 0.00000 73.74613 0.00000 0 0 0
87 0.00000 74.61216 0.50000 0 0 0
88 0.00000 75.47818 0.00000 0 0 0
89 0.00000 76.34421 0.50000 0 0 0
90 0.00000 77.21024 0.00000 0 0 0
91 0.00000 78.07626 0.50000 0 0 0
92 0.00000 78.94229 0.00000 0 0 0
93 0.00000 79.80831 0.50000 0 0 0
94 0.00000 80.67434 0.00000 0 0 0
95 0.00000 81.54036 0.50000 0 0 0
96 0.00000 82.40639 0.00000 0 0 0
97 0.00000 83.27241 0.50000 0 0 0
98 0.00000 84.13844 0.00000 0 0 0
99 0.00000 85.00446 0.50000 0 0 0
100 0.00000 85.87049 0.00000 0 0 0
ITEM: TIMESTEP
1000
ITEM: NUMBER OF ATOMS
100
ITEM: BOX BOUNDS pp pp pp
-1.0000000000000000e+03 1.0000000000000000e+03
-1.0000000000000000e+03 1.0000000000000000e+03
-1.0000000000000000e+03 1.0000000000000000e+03
ITEM: ATOMS id x y z ix iy iz
16 -0.11421 14.09629 -0.50502 0 0 0
27 0.25216 24.00492 -0.69350 0 0 0
35 -1.21726 30.25852 -0.67760 0 0 0
33 -1.46496 28.43606 -0.38319 0 0 0
38 -0.03359 32.91589 -0.73417 0 0 0
34 -1.61667 29.29014 -0.84182 0 0 0
65 -0.25080 55.68172 -0.33778 0 0 0
36 -0.83746 31.12701 -0.95952 0 0 0
22 0.53024 19.23659 -1.17065 0 0 0
17 0.02224 15.00744 -0.47560 0 0 0
18 -0.40599 15.64979 -1.14230 0 0 0
23 0.64878 20.33689 -1.00720 0 0 0
26 0.25766 23.07228 -0.69010 0 0 0
39 -0.38050 33.76919 -0.96180 0 0 0
9 -0.76737 8.78039 -0.63298 0 0 0
28 0.19980 24.79633 -0.18315 0 0 0
21 0.10401 18.44056 -0.81073 0 0 0
24 0.84070 21.34779 -0.98936 0 0 0
31 -0.64550 27.10283 -1.06606 0 0 0
29 -0.10118 25.50136 -0.73368 0 0 0
30 -0.10530 26.22973 -1.34783 0 0 0
20 -0.32859 17.60068 -0.53905 0 0 0
37 -0.53651 32.06248 -0.78315 0 0 0
19 -0.41280 16.58745 -0.79478 0 0 0
6 -0.76910 5.97253 -0.51870 0 0 0
7 -0.58656 6.88531 -0.74906 0 0 0
8 -0.91142 7.82798 -0.77111 0 0 0
32 -0.73924 27.77640 -0.43082 0 0 0
13 -0.15240 11.48195 -0.72498 0 0 0
12 -0.46733 10.56891 -0.49457 0 0 0
66 -0.22691 56.67358 -0.33815 0 0 0
5 -0.30946 5.13205 -0.31312 0 0 0
40 -1.24972 34.07153 -0.43438 0 0 0
41 -0.99185 34.97470 0.03916 0 0 0
10 0.01240 9.10777 -1.16653 0 0 0
51 1.89141 43.56113 -0.15107 0 0 0
60 0.15093 51.21630 -0.10090 0 0 0
15 -0.55188 13.19541 -0.06442 0 0 0
58 0.73486 49.52757 -0.22540 0 0 0
11 0.32987 9.93408 -0.77896 0 0 0
49 2.04608 41.54242 -0.25903 0 0 0
50 1.92036 42.51476 -0.31930 0 0 0
14 -0.05681 12.46551 -0.47975 0 0 0
25 0.79084 22.21187 -0.66367 0 0 0
67 0.26500 57.58225 -0.60292 0 0 0
68 -0.22829 58.54665 -0.42279 0 0 0
45 0.64328 38.19373 -0.01968 0 0 0
46 1.01850 38.99518 -0.39740 0 0 0
1 1.06255 4.11649 2.66644 0 0 0
2 1.10206 4.67233 1.81367 0 0 0
3 0.57624 5.12513 1.05448 0 0 0
4 0.44045 4.73643 0.08768 0 0 0
74 -0.12071 63.50274 2.56473 0 0 0
72 -0.56327 62.00195 1.49774 0 0 0
73 -0.53447 62.64782 2.22804 0 0 0
70 -0.42042 60.26963 0.65294 0 0 0
84 2.26755 70.53310 1.60796 0 0 0
82 1.84916 69.29199 2.62042 0 0 0
81 1.91330 68.66620 1.86455 0 0 0
47 1.47698 39.78678 -0.06045 0 0 0
78 1.23200 66.12926 2.31723 0 0 0
44 0.40134 37.16613 0.00505 0 0 0
100 1.65987 81.50416 2.49960 0 0 0
98 2.35057 80.30260 2.83041 0 0 0
97 1.35052 80.17500 2.54158 0 0 0
96 1.71104 79.32023 2.32869 0 0 0
95 1.98874 79.70030 1.47636 0 0 0
94 2.31121 78.70828 1.01619 0 0 0
93 3.01001 78.07601 0.85185 0 0 0
92 2.49005 77.35211 0.45384 0 0 0
79 1.69270 67.02426 1.94905 0 0 0
69 -0.16075 59.41539 0.10708 0 0 0
91 1.95275 76.52562 0.30785 0 0 0
90 2.09194 75.56215 0.30349 0 0 0
80 1.47674 67.89642 2.20643 0 0 0
89 2.19507 74.64316 0.55539 0 0 0
43 -0.14327 36.56992 0.46523 0 0 0
71 -0.74211 61.25280 0.87180 0 0 0
75 0.04753 64.04064 3.37125 0 0 0
59 0.70021 50.38379 0.26173 0 0 0
42 -0.38171 35.66754 0.20203 0 0 0
83 1.82055 70.29339 2.64062 0 0 0
77 1.13741 65.29587 3.01515 0 0 0
48 1.79623 40.71284 0.10945 0 0 0
86 2.07581 72.29915 1.36596 0 0 0
99 2.49300 81.16346 3.16238 0 0 0
63 -0.60629 53.94356 0.56180 0 0 0
85 2.00883 71.33046 1.28553 0 0 0
62 -0.42455 53.06950 0.17300 0 0 0
76 1.00233 64.32544 3.17972 0 0 0
88 1.87792 74.12256 1.36496 0 0 0
87 2.41914 73.32542 1.42725 0 0 0
55 1.17829 47.00846 1.07264 0 0 0
61 0.08233 52.27736 -0.08191 0 0 0
56 1.06966 47.77395 0.46846 0 0 0
54 1.41884 46.11501 1.43574 0 0 0
53 1.57372 45.21124 0.94231 0 0 0
52 1.75269 44.40677 0.42322 0 0 0
64 -0.52256 54.86158 0.14200 0 0 0
57 0.72767 48.67245 0.28624 0 0 0
ITEM: TIMESTEP
2000
ITEM: NUMBER OF ATOMS
100
ITEM: BOX BOUNDS pp pp pp
-1.0000000000000000e+03 1.0000000000000000e+03
-1.0000000000000000e+03 1.0000000000000000e+03
-1.0000000000000000e+03 1.0000000000000000e+03
ITEM: ATOMS id x y z ix iy iz
16 -0.52493 14.69152 -0.42564 0 0 0
27 1.70568 23.06136 -1.28215 0 0 0
12 -1.11699 11.23203 -0.48897 0 0 0
91 2.25627 75.59845 -0.52471 0 0 0
93 1.91509 77.20760 -0.33354 0 0 0
92 1.69109 76.34195 -0.67719 0 0 0
11 -0.63775 10.37812 -0.90218 0 0 0
10 -0.20932 9.59453 -0.51290 0 0 0
22 0.43195 19.30729 -1.50150 0 0 0
17 0.22948 15.26653 -0.56792 0 0 0
18 0.75916 15.79285 -1.16405 0 0 0
23 1.19519 19.65514 -1.93766 0 0 0
26 2.00728 22.21525 -1.70770 0 0 0
25 1.64487 21.35127 -2.05999 0 0 0
19 0.46707 16.66359 -1.52531 0 0 0
28 1.37524 23.93868 -1.60506 0 0 0
21 0.17255 18.53549 -0.95867 0 0 0
24 1.25967 20.52706 -2.39482 0 0 0
31 0.78878 25.31365 -0.76461 0 0 0
29 0.60338 24.49816 -1.60117 0 0 0
30 -0.03249 25.18533 -1.21151 0 0 0
20 0.42084 17.67349 -1.44894 0 0 0
14 -0.55600 12.98566 -0.06567 0 0 0
37 0.99416 30.53945 0.33595 0 0 0
9 -0.46300 9.04597 0.20528 0 0 0
38 0.82669 31.53030 0.17087 0 0 0
33 0.89085 26.98334 -0.13950 0 0 0
13 -0.74778 11.99461 -0.00569 0 0 0
1 1.91437 6.93701 2.25129 0 0 0
2 2.50165 6.11493 2.13148 0 0 0
3 1.51225 5.75394 2.22996 0 0 0
4 0.58056 5.98292 2.05532 0 0 0
74 0.06604 62.03950 1.87489 0 0 0
72 -1.34758 60.67259 2.27310 0 0 0
73 -0.87785 61.63892 2.01391 0 0 0
70 -0.71523 59.03441 2.65495 0 0 0
84 1.15301 70.51280 1.11104 0 0 0
8 -1.06579 8.56716 0.82340 0 0 0
81 1.22306 67.81003 1.41775 0 0 0
57 1.54789 48.44992 0.58754 0 0 0
78 1.26144 65.28012 0.69074 0 0 0
52 0.57201 44.13326 0.10200 0 0 0
100 2.13778 76.40831 3.13036 0 0 0
98 2.44422 78.24299 2.68603 0 0 0
97 2.71178 78.23107 1.80410 0 0 0
96 3.65608 78.36139 1.62718 0 0 0
95 3.20249 78.15917 0.71979 0 0 0
94 2.80881 77.41017 0.16131 0 0 0
36 1.11838 30.01229 -0.53487 0 0 0
7 -0.89202 7.70831 1.16335 0 0 0
79 0.98163 66.11384 1.00986 0 0 0
69 -0.43901 58.15322 2.35574 0 0 0
53 0.35698 45.07719 0.28199 0 0 0
90 2.39569 74.65765 -0.77130 0 0 0
80 0.68650 67.03914 1.01586 0 0 0
54 0.98165 45.75875 0.64829 0 0 0
56 1.72959 47.46044 0.43069 0 0 0
71 -1.46269 59.62900 2.36751 0 0 0
75 0.74692 62.86374 1.91700 0 0 0
59 1.30448 49.87651 1.11031 0 0 0
50 -0.12014 42.26177 0.05712 0 0 0
83 0.89539 69.60806 0.81337 0 0 0
77 1.43547 64.54480 1.37605 0 0 0
55 1.10803 46.74142 0.74067 0 0 0
86 1.43432 72.28200 0.70836 0 0 0
99 2.09399 77.40433 3.18258 0 0 0
87 2.27303 72.24594 0.24446 0 0 0
45 -1.39352 37.77727 0.85293 0 0 0
58 1.90069 49.09750 1.17279 0 0 0
76 1.03649 63.81396 2.00859 0 0 0
88 2.93567 72.87625 -0.17914 0 0 0
5 -0.04120 6.67673 2.03977 0 0 0
51 0.14856 43.20777 -0.08498 0 0 0
67 0.23466 56.86924 1.00106 0 0 0
68 0.01557 57.43168 1.81426 0 0 0
65 0.71954 55.03875 0.99857 0 0 0
6 0.05973 7.40255 1.28367 0 0 0
48 -0.63510 40.45916 0.09160 0 0 0
66 0.79096 55.99404 0.98360 0 0 0
46 -0.97227 38.76971 0.73159 0 0 0
89 2.75390 73.75120 -0.43192 0 0 0
34 0.78492 27.88180 0.13160 0 0 0
64 0.96061 54.14219 1.27418 0 0 0
49 -0.29983 41.30916 0.15482 0 0 0
82 0.87490 68.63724 1.13749 0 0 0
63 1.00039 53.45415 0.59244 0 0 0
60 0.78650 50.49764 0.57577 0 0 0
62 1.28857 52.44861 0.66666 0 0 0
61 1.39527 51.40454 0.49289 0 0 0
35 1.00841 28.91573 -0.31521 0 0 0
85 1.29446 71.46509 1.23904 0 0 0
43 -1.20308 35.90019 0.36050 0 0 0
44 -1.08128 36.91273 0.51317 0 0 0
40 0.00642 33.18367 0.39637 0 0 0
47 -0.65824 39.50328 0.15623 0 0 0
42 -0.86188 35.02750 0.08957 0 0 0
39 0.10701 32.22844 0.26031 0 0 0
41 -0.65599 33.96056 0.24850 0 0 0
15 -0.96574 13.91886 -0.10549 0 0 0
32 1.29375 26.12698 -0.61921 0 0 0
ITEM: TIMESTEP
3000
ITEM: NUMBER OF ATOMS
100
ITEM: BOX BOUNDS pp pp pp
-1.0000000000000000e+03 1.0000000000000000e+03
-1.0000000000000000e+03 1.0000000000000000e+03
-1.0000000000000000e+03 1.0000000000000000e+03
ITEM: ATOMS id x y z ix iy iz
26 1.39301 23.53320 -1.29147 0 0 0
27 1.93062 23.89157 -2.05460 0 0 0
13 0.54946 14.30496 -0.60707 0 0 0
24 1.39775 22.32437 -0.35702 0 0 0
16 2.63135 15.59024 -0.71932 0 0 0
23 1.36937 21.29154 -0.30950 0 0 0
12 0.00976 13.43440 -0.35504 0 0 0
19 2.00108 18.04540 -1.37525 0 0 0
14 1.36558 14.96046 -0.92043 0 0 0
2 -0.12989 7.52641 -2.21500 0 0 0
15 2.01563 15.50169 -1.39596 0 0 0
1 0.54199 7.71797 -2.79201 0 0 0
30 1.91516 26.30857 -0.72885 0 0 0
25 1.96548 22.94226 -0.81512 0 0 0
29 2.10011 25.48731 -1.21400 0 0 0
28 2.10034 24.83526 -1.94257 0 0 0
3 -0.05633 8.41010 -1.83931 0 0 0
20 1.41598 18.59482 -0.83774 0 0 0
70 0.66149 58.71472 -0.16177 0 0 0
60 0.64255 50.23086 0.41270 0 0 0
69 0.96923 57.84591 -0.52049 0 0 0
56 0.67044 46.72810 0.62205 0 0 0
59 0.62269 49.45413 -0.12730 0 0 0
6 0.09214 9.53035 -0.59569 0 0 0
77 1.32516 64.62157 0.57625 0 0 0
17 2.17850 16.45674 -0.60607 0 0 0
5 0.70020 9.19874 -1.38098 0 0 0
58 0.68332 48.45359 -0.01304 0 0 0
21 1.18169 19.49545 -0.50428 0 0 0
18 1.76069 17.14444 -1.18382 0 0 0
4 0.73018 8.22555 -1.26236 0 0 0
54 0.48709 45.17834 0.78073 0 0 0
50 0.57622 41.62751 1.18953 0 0 0
33 2.30627 28.01636 1.38041 0 0 0
52 1.23376 43.47814 1.23919 0 0 0
74 0.06251 61.94774 0.59293 0 0 0
72 -0.07713 60.22441 0.39864 0 0 0
73 -0.17353 61.05258 0.86729 0 0 0
37 1.79968 31.45645 2.30721 0 0 0
84 3.06159 69.30100 3.49529 0 0 0
41 0.49924 34.15589 0.50097 0 0 0
81 1.71314 67.43763 1.88898 0 0 0
57 0.97169 47.54791 0.21731 0 0 0
78 1.84601 65.52231 0.43843 0 0 0
92 4.14785 74.82949 1.77327 0 0 0
100 4.02673 74.44815 4.38215 0 0 0
98 2.64817 75.16518 3.41422 0 0 0
97 1.97241 74.96005 2.76483 0 0 0
96 1.83895 75.72229 2.20087 0 0 0
95 2.64352 76.19589 2.50789 0 0 0
94 3.60107 76.03333 2.50416 0 0 0
86 3.99891 70.42935 3.06700 0 0 0
88 5.16333 71.18457 1.82811 0 0 0
79 1.53256 66.42356 0.76753 0 0 0
91 4.45970 73.87809 1.81153 0 0 0
82 2.45939 68.03304 2.32816 0 0 0
7 -0.76074 10.09076 -0.48394 0 0 0
80 1.45050 67.39134 0.94224 0 0 0
47 -0.86607 39.56951 -0.15181 0 0 0
38 1.82026 32.44458 2.04910 0 0 0
71 0.23324 59.61370 -0.26065 0 0 0
75 0.66535 62.73312 0.39145 0 0 0
10 -0.17659 11.59705 -0.03116 0 0 0
90 4.89584 72.98156 1.54509 0 0 0
83 2.45310 68.63351 3.16660 0 0 0
22 0.90698 20.43326 -0.74451 0 0 0
39 1.82879 33.18498 1.42723 0 0 0
49 0.26484 40.63000 1.18916 0 0 0
99 3.25327 74.98769 4.19809 0 0 0
61 0.65566 51.19289 0.56110 0 0 0
45 -0.43255 37.58644 -0.37580 0 0 0
8 -1.45390 10.69495 -0.09813 0 0 0
89 4.83765 72.00808 1.47548 0 0 0
44 -0.25658 36.63767 -0.20378 0 0 0
42 -0.04493 34.95241 0.32343 0 0 0
43 -0.22169 35.69431 -0.23098 0 0 0
67 0.98984 56.14762 0.21507 0 0 0
68 1.22395 56.87160 -0.27993 0 0 0
87 4.48950 70.88588 2.35945 0 0 0
40 1.22479 33.32574 0.61532 0 0 0
48 -0.30893 40.06517 0.51088 0 0 0
66 0.95187 55.12895 0.17764 0 0 0
46 -0.71004 38.59243 -0.23712 0 0 0
51 0.95838 42.51634 1.20628 0 0 0
53 0.61134 44.31613 1.20870 0 0 0
85 3.02982 70.21033 3.23719 0 0 0
9 -0.95233 11.27611 0.46357 0 0 0
93 4.16290 75.82759 1.63814 0 0 0
34 1.99081 28.85014 1.82061 0 0 0
11 -0.24069 12.53606 -0.16552 0 0 0
63 0.61584 52.84329 0.64563 0 0 0
65 0.42091 54.67423 0.86616 0 0 0
76 1.00927 63.65562 0.40871 0 0 0
64 0.38203 53.71185 1.15687 0 0 0
55 0.13268 45.97484 0.37881 0 0 0
62 0.17194 52.05819 0.86683 0 0 0
36 1.33724 30.57139 2.52314 0 0 0
32 1.98633 27.57876 0.62923 0 0 0
35 1.58623 29.67969 2.24019 0 0 0
31 1.73144 26.76336 0.16775 0 0 0
ITEM: TIMESTEP
4000
ITEM: NUMBER OF ATOMS
100
ITEM: BOX BOUNDS pp pp pp
-1.0000000000000000e+03 1.0000000000000000e+03
-1.0000000000000000e+03 1.0000000000000000e+03
-1.0000000000000000e+03 1.0000000000000000e+03
ITEM: ATOMS id x y z ix iy iz
26 2.51423 24.48415 -0.73707 0 0 0
71 2.37325 58.36233 -0.14565 0 0 0
29 2.94336 26.88494 0.69228 0 0 0
24 2.58070 23.50187 -1.82669 0 0 0
16 2.68913 16.75192 -0.72023 0 0 0
23 3.05845 22.62639 -1.76708 0 0 0
10 0.99193 12.68483 -0.34762 0 0 0
19 3.34647 18.97673 -2.16773 0 0 0
14 1.88634 15.60130 -1.35758 0 0 0
2 -1.49345 9.95456 -4.21937 0 0 0
62 0.09508 51.50026 -0.58296 0 0 0
1 -1.08840 10.30011 -5.11010 0 0 0
11 1.46065 13.34105 0.04882 0 0 0
25 2.34587 24.38936 -1.67879 0 0 0
63 -0.11846 52.40255 -0.88232 0 0 0
66 0.29969 55.10921 -0.60642 0 0 0
3 -1.04301 10.21125 -3.40897 0 0 0
20 3.19067 19.96232 -2.00529 0 0 0
70 1.65079 58.28958 -0.83551 0 0 0
4 -1.35019 10.26991 -2.50995 0 0 0
69 1.74753 57.28331 -1.04810 0 0 0
18 3.01088 18.18257 -1.77486 0 0 0
68 0.88792 56.81299 -0.77186 0 0 0
6 -0.51882 10.39359 -1.88887 0 0 0
21 2.89577 20.82871 -2.29597 0 0 0
17 2.58970 17.45359 -1.37200 0 0 0
5 -1.07364 9.58157 -1.70159 0 0 0
9 0.19245 12.18297 -0.53459 0 0 0
7 0.05589 11.15039 -1.60070 0 0 0
67 0.86527 55.86368 -1.11113 0 0 0
22 3.16110 21.83499 -2.25811 0 0 0
65 0.26684 54.12696 -0.33464 0 0 0
8 -0.51462 11.91415 -1.34979 0 0 0
64 0.16022 53.17363 -0.51422 0 0 0
50 1.88176 42.67676 -0.23975 0 0 0
51 1.05146 43.26478 -0.14291 0 0 0
27 2.48314 25.51402 -0.57888 0 0 0
61 0.22917 50.57984 -0.43061 0 0 0
53 -0.16489 44.57758 -0.35843 0 0 0
49 2.23130 41.77275 -0.47017 0 0 0
60 -0.30508 49.77575 -0.53015 0 0 0
52 0.20265 43.66482 -0.47439 0 0 0
28 2.92496 26.32312 -0.12299 0 0 0
15 2.64188 15.78297 -0.76411 0 0 0
12 1.41327 14.34977 -0.03189 0 0 0
13 1.58014 15.14869 -0.56473 0 0 0
59 -1.19715 49.59243 -0.80437 0 0 0
56 -0.45888 47.30089 0.50120 0 0 0
57 -0.76419 48.29095 0.39567 0 0 0
33 2.24858 30.02667 1.77932 0 0 0
55 -0.45087 46.31450 0.47830 0 0 0
58 -1.37565 48.84067 -0.09154 0 0 0
31 2.66623 28.62902 0.49206 0 0 0
48 2.54422 41.57344 0.41164 0 0 0
37 1.90301 32.73035 0.93184 0 0 0
84 2.03560 68.31685 2.97956 0 0 0
41 1.56550 35.57130 1.35598 0 0 0
81 3.17302 65.66354 2.25547 0 0 0
74 1.66370 60.43813 1.72484 0 0 0
78 1.84673 63.76355 2.14744 0 0 0
92 4.59251 74.22412 1.90968 0 0 0
100 0.55515 73.49540 4.16313 0 0 0
98 1.61007 73.34030 3.09197 0 0 0
97 1.33130 74.27392 3.06273 0 0 0
96 2.24523 74.99434 2.92000 0 0 0
95 2.97143 75.63973 2.65040 0 0 0
94 3.64746 75.67285 1.94909 0 0 0
86 1.31867 69.95975 2.38060 0 0 0
88 2.11241 71.73191 1.86292 0 0 0
79 2.76808 63.85555 1.72354 0 0 0
91 4.30800 73.32446 1.51051 0 0 0
82 2.65275 66.50215 2.61401 0 0 0
35 2.24274 31.27948 2.17933 0 0 0
80 3.24953 64.68537 1.88874 0 0 0
32 2.58971 29.33034 1.09378 0 0 0
38 1.96382 33.71167 0.74621 0 0 0
30 2.92324 27.83137 0.86180 0 0 0
75 1.17680 61.31119 1.82512 0 0 0
77 1.18644 63.06237 2.17527 0 0 0
90 3.46560 72.88106 1.46431 0 0 0
83 2.02837 67.31584 2.80526 0 0 0
36 2.11537 31.85022 1.38947 0 0 0
39 1.20119 34.22208 1.21749 0 0 0
45 2.62143 38.98294 0.99314 0 0 0
99 1.23553 72.88088 3.89051 0 0 0
40 2.05295 34.74007 1.30303 0 0 0
93 4.24480 75.04231 2.35650 0 0 0
44 2.37742 38.14182 1.44966 0 0 0
89 2.89610 72.08248 1.46022 0 0 0
34 2.32556 30.34201 2.66047 0 0 0
42 2.36609 36.13132 1.49528 0 0 0
43 2.66677 37.10227 1.44822 0 0 0
76 0.73361 62.25700 1.77747 0 0 0
85 1.48117 68.97605 2.57219 0 0 0
87 1.43631 70.84499 1.97371 0 0 0
54 -0.16446 45.53818 -0.13621 0 0 0
73 1.99711 59.69703 1.06696 0 0 0
72 2.42880 58.88424 0.80418 0 0 0
46 3.01116 39.87522 0.71950 0 0 0
47 2.67492 40.73501 0.99353 0 0 0
ITEM: TIMESTEP
5000
ITEM: NUMBER OF ATOMS
100
ITEM: BOX BOUNDS pp pp pp
-1.0000000000000000e+03 1.0000000000000000e+03
-1.0000000000000000e+03 1.0000000000000000e+03
-1.0000000000000000e+03 1.0000000000000000e+03
ITEM: ATOMS id x y z ix iy iz
53 0.45213 43.35834 -0.62176 0 0 0
51 0.02898 41.54910 -0.05560 0 0 0
13 0.56952 16.08744 -3.10872 0 0 0
34 2.98759 31.90545 0.46996 0 0 0
16 2.21820 17.86932 -2.81684 0 0 0
61 1.95472 50.09425 0.59347 0 0 0
15 1.30471 17.69381 -2.42294 0 0 0
19 2.31000 19.66180 -1.67548 0 0 0
14 1.12107 16.84764 -2.86569 0 0 0
2 -3.49870 9.96774 -6.52796 0 0 0
12 -0.10773 15.41621 -3.09055 0 0 0
1 -3.73137 9.03842 -6.53349 0 0 0
11 -0.40547 14.43340 -2.87300 0 0 0
52 0.27968 42.42227 -0.43909 0 0 0
10 -0.14869 13.50621 -3.08461 0 0 0
37 1.43908 33.32316 -1.06798 0 0 0
3 -2.72806 10.21743 -6.03324 0 0 0
20 2.17570 20.57640 -1.37645 0 0 0
8 -0.83678 11.98715 -3.56371 0 0 0
4 -2.51399 10.20339 -5.06314 0 0 0
9 -0.19618 12.56762 -3.20013 0 0 0
18 2.54986 18.81077 -1.98059 0 0 0
7 -0.80356 11.09444 -3.97115 0 0 0
6 -1.60617 10.67921 -3.48156 0 0 0
5 -2.16090 10.71926 -4.34248 0 0 0
17 2.78400 18.63160 -2.94111 0 0 0
46 -1.11339 40.16819 -0.15746 0 0 0
21 2.27047 21.44837 -1.11117 0 0 0
36 2.27766 33.26810 -0.55398 0 0 0
35 2.87361 32.50772 -0.41574 0 0 0
45 -1.05640 39.21420 0.14318 0 0 0
64 1.59311 52.86721 0.27008 0 0 0
38 1.57871 34.12554 -0.44883 0 0 0
63 1.84107 51.93843 0.57921 0 0 0
47 -0.47416 39.99183 0.65324 0 0 0
22 1.87263 22.12575 -0.59542 0 0 0
54 0.77314 44.20224 -0.17066 0 0 0
72 1.20925 59.15123 1.28470 0 0 0
73 1.00650 60.02534 1.00038 0 0 0
68 1.42737 55.68531 1.09985 0 0 0
48 -0.06065 40.70821 1.08674 0 0 0
40 0.85815 35.45138 0.86637 0 0 0
84 -0.15280 67.98795 3.61368 0 0 0
25 2.46000 24.30468 1.11708 0 0 0
81 -0.20503 66.60668 2.00748 0 0 0
74 0.39318 60.94981 0.97826 0 0 0
78 0.32231 64.03508 1.64255 0 0 0
92 1.58566 70.84493 1.12566 0 0 0
100 -0.76427 72.83654 2.62224 0 0 0
98 0.71181 72.53280 1.57121 0 0 0
97 0.95639 73.29858 1.09701 0 0 0
96 1.74857 73.58495 0.59348 0 0 0
95 2.29263 73.05404 1.26059 0 0 0
94 1.86619 72.48073 2.01482 0 0 0
86 0.75525 68.62101 4.67504 0 0 0
88 2.30654 68.93577 3.68123 0 0 0
79 0.13702 64.86403 2.04101 0 0 0
91 1.24283 70.29363 1.94067 0 0 0
82 -0.15860 67.59345 1.79903 0 0 0
67 0.93295 55.04636 0.54446 0 0 0
80 -0.05714 65.74255 2.41346 0 0 0
28 2.86129 27.10285 0.48130 0 0 0
70 1.18821 57.53393 1.44660 0 0 0
30 2.46048 28.79907 0.35237 0 0 0
75 0.12347 61.79857 1.44041 0 0 0
77 0.21192 63.07383 1.61504 0 0 0
90 1.47168 69.64425 2.63238 0 0 0
83 -0.44392 67.71981 2.71589 0 0 0
65 0.76199 53.23995 0.02493 0 0 0
66 0.87712 54.20985 -0.15266 0 0 0
31 2.22084 29.71982 0.31076 0 0 0
99 -0.16616 72.29371 2.03876 0 0 0
69 1.30354 56.63412 1.09505 0 0 0
93 1.75512 71.48886 1.88807 0 0 0
44 -0.37286 38.51743 0.01684 0 0 0
89 2.44165 69.40445 2.78691 0 0 0
24 2.19871 23.43118 0.86714 0 0 0
27 2.97285 26.03255 0.56001 0 0 0
43 0.23564 37.83785 0.50429 0 0 0
76 -0.05541 62.58212 0.90693 0 0 0
85 -0.14657 68.13515 4.53588 0 0 0
87 1.62970 68.80653 4.41344 0 0 0
71 1.54827 58.31771 0.93692 0 0 0
42 0.71332 37.23155 1.13949 0 0 0
29 2.58267 27.93509 0.76613 0 0 0
23 1.94066 22.89552 0.10215 0 0 0
41 0.85692 36.33000 1.13897 0 0 0
56 0.59166 46.07211 0.38833 0 0 0
62 1.47827 51.04886 0.46863 0 0 0
55 0.80565 45.18030 0.03047 0 0 0
58 0.74114 47.84961 1.15691 0 0 0
57 0.65532 47.06342 0.55627 0 0 0
39 0.99700 34.84079 0.09118 0 0 0
26 2.98713 25.07716 0.76659 0 0 0
32 2.61867 30.49466 0.68990 0 0 0
59 1.35722 48.48211 0.65556 0 0 0
50 -0.74270 41.09063 0.24538 0 0 0
60 1.61321 49.31520 0.21293 0 0 0
33 2.89978 31.02135 -0.00346 0 0 0
49 -1.06116 40.90076 1.22569 0 0 0
ITEM: TIMESTEP
6000
ITEM: NUMBER OF ATOMS
100
ITEM: BOX BOUNDS pp pp pp
-1.0000000000000000e+03 1.0000000000000000e+03
-1.0000000000000000e+03 1.0000000000000000e+03
-1.0000000000000000e+03 1.0000000000000000e+03
ITEM: ATOMS id x y z ix iy iz
34 1.46267 31.58893 0.00562 0 0 0
23 2.08295 22.51411 -0.32113 0 0 0
13 -2.84277 17.09287 -1.22305 0 0 0
35 1.12748 32.51409 -0.06268 0 0 0
16 -1.84017 19.30734 -0.82217 0 0 0
36 1.86657 32.91042 -0.64266 0 0 0
15 -2.60648 18.94275 -1.34961 0 0 0
37 1.92353 33.79704 -1.01050 0 0 0
14 -2.51737 17.99761 -1.34503 0 0 0
2 -1.00682 11.70600 -8.48739 0 0 0
12 -2.29360 16.24457 -1.49124 0 0 0
1 -1.65196 10.99537 -8.37513 0 0 0
11 -2.04128 15.33283 -1.63939 0 0 0
19 0.02644 20.02399 -1.81171 0 0 0
10 -1.82933 15.40149 -2.61441 0 0 0
20 0.81503 20.62639 -1.65931 0 0 0
3 -0.80386 12.20244 -7.76874 0 0 0
22 2.11229 21.59119 -0.60034 0 0 0
8 -1.71549 14.29342 -4.15054 0 0 0
4 -1.51746 12.71965 -7.32084 0 0 0
9 -1.58517 14.99484 -3.45853 0 0 0
18 -0.39068 19.86803 -0.96718 0 0 0
7 -1.49290 13.65483 -4.86307 0 0 0
6 -1.38213 13.15762 -5.61723 0 0 0
5 -1.14969 12.58971 -6.43634 0 0 0
17 -1.06660 19.18751 -1.34541 0 0 0
21 1.33124 21.05047 -0.91860 0 0 0
25 1.44242 24.19260 0.21631 0 0 0
24 2.04151 23.47623 -0.11172 0 0 0
47 1.10457 41.31174 1.10547 0 0 0
49 0.63832 42.09073 2.58464 0 0 0
60 0.24111 50.84680 1.79414 0 0 0
72 1.44870 57.11945 1.61624 0 0 0
73 0.86127 57.82513 1.39287 0 0 0
68 0.40633 54.95680 3.67117 0 0 0
48 0.94458 42.13439 1.62286 0 0 0
46 1.67426 40.59153 0.77423 0 0 0
84 0.45585 66.35381 1.22078 0 0 0
55 1.21066 46.97634 2.28595 0 0 0
81 0.87487 64.32422 2.88687 0 0 0
74 0.97674 58.46811 2.12802 0 0 0
78 1.65012 61.76939 2.52865 0 0 0
92 0.30848 70.83033 3.51564 0 0 0
100 5.67463 73.10991 4.10099 0 0 0
98 3.91430 72.51934 4.07523 0 0 0
97 2.96467 72.49992 4.33698 0 0 0
96 2.06869 72.72352 4.06410 0 0 0
95 1.50225 72.31945 4.69197 0 0 0
94 0.80322 72.12829 4.01946 0 0 0
86 1.36156 67.69566 2.27968 0 0 0
88 0.74514 69.24505 1.82286 0 0 0
57 1.65571 48.62842 2.43297 0 0 0
91 -0.67625 70.67354 3.22255 0 0 0
82 1.06250 64.82973 2.09587 0 0 0
67 0.42746 54.68278 2.63860 0 0 0
58 1.14746 49.41264 1.99635 0 0 0
54 1.38536 46.13791 1.84334 0 0 0
70 1.09808 56.40166 3.24111 0 0 0
64 2.16714 53.26048 2.01131 0 0 0
75 1.07753 59.52640 1.89893 0 0 0
77 1.67267 61.23603 1.74210 0 0 0
90 -0.32592 70.40222 2.37945 0 0 0
83 1.10576 65.70179 1.71388 0 0 0
50 0.81560 42.96378 2.92587 0 0 0
59 0.27381 49.89332 1.79386 0 0 0
45 1.76288 39.60275 0.78698 0 0 0
99 4.81058 72.77995 4.33790 0 0 0
69 1.23883 55.57628 3.71135 0 0 0
93 0.06142 71.71771 3.50781 0 0 0
63 1.19348 53.28797 1.59158 0 0 0
89 0.53419 70.18979 1.99312 0 0 0
44 1.28084 38.67013 0.75439 0 0 0
51 1.57309 43.62742 2.69016 0 0 0
65 1.96627 54.19204 1.77817 0 0 0
76 1.01618 60.50635 1.64642 0 0 0
85 0.90752 66.90227 1.91278 0 0 0
87 0.59568 68.35556 2.17033 0 0 0
71 1.68332 56.81997 2.60714 0 0 0
52 1.71910 44.55380 2.83701 0 0 0
53 1.51868 45.45820 2.62221 0 0 0
61 0.57192 51.58230 1.27229 0 0 0
66 1.05761 54.73628 1.83772 0 0 0
56 1.29943 47.82043 2.89503 0 0 0
62 0.85487 52.57240 1.04676 0 0 0
27 1.90829 25.87795 0.65345 0 0 0
43 1.28844 37.67052 0.81114 0 0 0
80 1.43293 63.56097 3.12702 0 0 0
40 1.08031 35.49531 0.30324 0 0 0
42 1.41252 36.96047 1.51707 0 0 0
79 1.49809 62.51822 3.07998 0 0 0
41 1.38854 36.12032 0.92787 0 0 0
30 1.62945 28.49766 0.23426 0 0 0
39 1.02804 34.52982 0.55071 0 0 0
28 1.85152 26.53891 -0.02259 0 0 0
38 1.73215 34.22513 -0.13055 0 0 0
31 1.78371 29.41921 0.40148 0 0 0
32 1.33217 30.23739 0.69445 0 0 0
29 1.82566 27.62348 -0.01250 0 0 0
33 2.00265 30.89107 0.45543 0 0 0
26 1.70600 24.92183 0.86117 0 0 0
ITEM: TIMESTEP
7000
ITEM: NUMBER OF ATOMS
100
ITEM: BOX BOUNDS pp pp pp
-1.0000000000000000e+03 1.0000000000000000e+03
-1.0000000000000000e+03 1.0000000000000000e+03
-1.0000000000000000e+03 1.0000000000000000e+03
ITEM: ATOMS id x y z ix iy iz
10 -2.54318 16.89963 -1.37830 0 0 0
5 -2.07795 13.94172 -4.34145 0 0 0
13 -0.37254 17.88724 -0.68154 0 0 0
7 -2.42480 14.91998 -2.60498 0 0 0
4 -2.49038 13.08531 -4.35870 0 0 0
6 -2.42492 14.45163 -3.54037 0 0 0
3 -2.31571 12.16688 -4.01260 0 0 0
9 -1.86184 16.20043 -1.20677 0 0 0
8 -1.78277 15.41121 -1.86213 0 0 0
2 -2.26603 11.61841 -3.26518 0 0 0
12 -1.26461 17.63920 -0.85683 0 0 0
1 -1.73772 11.02554 -2.80659 0 0 0
11 -2.13152 17.76037 -1.28017 0 0 0
33 0.34208 31.00982 -0.13175 0 0 0
47 1.71011 41.70165 1.39111 0 0 0
49 1.63181 42.89672 1.83184 0 0 0
60 1.39099 49.99082 1.74273 0 0 0
72 0.79058 57.41160 2.59826 0 0 0
73 1.25316 58.07015 2.02807 0 0 0
68 0.92660 55.01352 3.15177 0 0 0
48 0.95761 42.21965 1.76354 0 0 0
46 1.19974 40.87977 1.13621 0 0 0
84 0.41286 66.20220 2.50441 0 0 0
55 2.22575 47.06525 0.82108 0 0 0
81 0.61723 64.86967 1.68534 0 0 0
74 1.45140 59.05164 1.78652 0 0 0
78 1.00025 62.60393 2.69412 0 0 0
92 1.72786 71.22353 4.65968 0 0 0
100 5.43452 71.75959 5.04421 0 0 0
98 5.08987 72.63862 5.95272 0 0 0
97 4.74238 73.18469 5.24342 0 0 0
96 4.06754 73.34595 4.52818 0 0 0
95 3.68280 72.47709 4.34393 0 0 0
94 2.83544 72.46962 3.75485 0 0 0
86 0.09623 67.54804 3.12359 0 0 0
88 0.33813 68.39167 4.86522 0 0 0
57 0.83005 47.91323 1.89545 0 0 0
91 1.56642 70.35297 4.99833 0 0 0
82 1.12222 65.49400 2.20771 0 0 0
67 1.61867 54.48981 2.62925 0 0 0
58 1.56576 48.55168 1.83560 0 0 0
54 3.26176 46.96345 0.96927 0 0 0
70 0.47377 55.96449 3.50311 0 0 0
64 0.14894 52.44921 1.43215 0 0 0
75 0.94433 59.87628 1.86671 0 0 0
77 0.82808 61.63654 2.62394 0 0 0
90 1.24039 69.59144 5.47602 0 0 0
83 1.28221 66.47356 2.11929 0 0 0
50 2.05724 43.76190 1.78966 0 0 0
59 2.02010 49.37329 1.36580 0 0 0
45 0.95485 39.95537 1.23782 0 0 0
99 5.94063 72.37818 5.60002 0 0 0
69 0.61062 55.15765 4.09290 0 0 0
93 2.04115 72.02497 4.22824 0 0 0
63 0.12154 51.53643 1.04295 0 0 0
89 1.24461 68.81551 4.93259 0 0 0
44 0.66265 40.10380 0.26125 0 0 0
51 2.81744 44.43334 1.91071 0 0 0
65 0.37429 53.25275 1.94003 0 0 0
76 0.73454 60.84512 1.81578 0 0 0
85 0.13933 67.08184 2.25648 0 0 0
87 0.37037 67.99534 3.95705 0 0 0
71 0.21598 56.60903 2.83128 0 0 0
52 2.79124 45.26381 1.41142 0 0 0
53 2.72394 46.28469 1.39528 0 0 0
61 0.56314 50.36989 2.05481 0 0 0
66 1.12360 53.78792 2.28247 0 0 0
56 1.49275 47.67904 1.20549 0 0 0
62 -0.24708 50.73654 1.47974 0 0 0
27 1.02532 26.30276 2.80318 0 0 0
26 0.95145 25.36943 3.03972 0 0 0
80 0.07320 63.97591 1.62674 0 0 0
18 0.97929 19.67449 2.04547 0 0 0
42 0.80766 38.11302 0.61665 0 0 0
79 0.50580 63.11126 2.00164 0 0 0
20 0.57571 21.46181 1.63328 0 0 0
16 -0.27425 18.80392 1.21350 0 0 0
17 0.47487 18.88168 1.88251 0 0 0
28 0.62512 26.69029 1.94811 0 0 0
22 -0.01299 23.05031 1.14055 0 0 0
21 0.43287 22.16818 0.98378 0 0 0
19 0.62307 20.49848 1.77398 0 0 0
24 -0.11659 23.93682 2.43170 0 0 0
25 0.22004 24.69839 3.01074 0 0 0
23 -0.51680 23.78622 1.52647 0 0 0
29 0.23706 27.47710 1.53681 0 0 0
31 0.46360 29.21442 0.65475 0 0 0
30 0.35487 28.29783 1.00951 0 0 0
32 0.18016 30.11201 0.31818 0 0 0
41 1.01185 37.11593 0.65344 0 0 0
38 1.50650 34.42348 0.71872 0 0 0
39 1.36444 35.44758 0.51141 0 0 0
40 0.86851 36.19068 0.62726 0 0 0
35 1.31756 32.36308 0.08342 0 0 0
34 1.15483 31.37750 -0.45205 0 0 0
36 1.31472 32.54625 0.97778 0 0 0
37 1.21497 33.50947 0.88035 0 0 0
14 -0.31992 18.17756 0.21997 0 0 0
15 -0.55909 19.05276 0.30752 0 0 0
43 0.66585 39.11203 0.55286 0 0 0
ITEM: TIMESTEP
8000
ITEM: NUMBER OF ATOMS
100
ITEM: BOX BOUNDS pp pp pp
-1.0000000000000000e+03 1.0000000000000000e+03
-1.0000000000000000e+03 1.0000000000000000e+03
-1.0000000000000000e+03 1.0000000000000000e+03
ITEM: ATOMS id x y z ix iy iz
10 -4.35328 16.03548 -2.27117 0 0 0
5 -1.59198 13.54725 -3.09224 0 0 0
13 -3.67143 18.44901 -0.99548 0 0 0
7 -3.28993 14.02538 -2.34485 0 0 0
4 -1.23166 12.92682 -2.47230 0 0 0
6 -2.50785 13.69101 -2.81005 0 0 0
3 -1.25310 12.11732 -1.89057 0 0 0
9 -3.93083 15.42680 -2.86800 0 0 0