ITEM: TIMESTEP
0
ITEM: NUMBER OF ATOMS
200
ITEM: BOX BOUNDS pp pp pp
-1.0000000000000000e+03 1.0000000000000000e+03
-1.0000000000000000e+03 1.0000000000000000e+03
-1.0000000000000000e+03 1.0000000000000000e+03
ITEM: ATOMS id x y z ix iy iz
1 0.00000 0.00000 0.00000 0 0 0
2 0.00000 1.00000 0.00000 0 0 0
3 0.00000 1.86603 0.50000 0 0 0
4 0.00000 2.73205 0.00000 0 0 0
5 0.00000 3.59808 0.50000 0 0 0
6 0.00000 4.46410 0.00000 0 0 0
7 0.00000 5.33013 0.50000 0 0 0
8 0.00000 6.19615 0.00000 0 0 0
9 0.00000 7.06218 0.50000 0 0 0
10 0.00000 7.92820 0.00000 0 0 0
11 0.00000 8.79423 0.50000 0 0 0
12 0.00000 9.66025 0.00000 0 0 0
13 0.00000 10.52628 0.50000 0 0 0
14 0.00000 11.39230 0.00000 0 0 0
15 0.00000 12.25833 0.50000 0 0 0
16 0.00000 13.12436 0.00000 0 0 0
17 0.00000 13.99038 0.50000 0 0 0
18 0.00000 14.85641 0.00000 0 0 0
19 0.00000 15.72243 0.50000 0 0 0
20 0.00000 16.58846 0.00000 0 0 0
21 0.00000 17.45448 0.50000 0 0 0
22 0.00000 18.32051 0.00000 0 0 0
23 0.00000 19.18653 0.50000 0 0 0
24 0.00000 20.05256 0.00000 0 0 0
25 0.00000 20.91858 0.50000 0 0 0
26 0.00000 21.78461 0.00000 0 0 0
27 0.00000 22.65064 0.50000 0 0 0
28 0.00000 23.51666 0.00000 0 0 0
29 0.00000 24.38269 0.50000 0 0 0
30 0.00000 25.24871 0.00000 0 0 0
31 0.00000 26.11474 0.50000 0 0 0
32 0.00000 26.98076 0.00000 0 0 0
33 0.00000 27.84679 0.50000 0 0 0
34 0.00000 28.71281 0.00000 0 0 0
35 0.00000 29.57884 0.50000 0 0 0
36 0.00000 30.44486 0.00000 0 0 0
37 0.00000 31.31089 0.50000 0 0 0
38 0.00000 32.17691 0.00000 0 0 0
39 0.00000 33.04294 0.50000 0 0 0
40 0.00000 33.90897 0.00000 0 0 0
41 0.00000 34.77499 0.50000 0 0 0
42 0.00000 35.64102 0.00000 0 0 0
43 0.00000 36.50704 0.50000 0 0 0
44 0.00000 37.37307 0.00000 0 0 0
45 0.00000 38.23909 0.50000 0 0 0
46 0.00000 39.10512 0.00000 0 0 0
47 0.00000 39.97114 0.50000 0 0 0
48 0.00000 40.83717 0.00000 0 0 0
49 0.00000 41.70319 0.50000 0 0 0
50 0.00000 42.56922 0.00000 0 0 0
51 0.00000 43.43524 0.50000 0 0 0
52 0.00000 44.30127 0.00000 0 0 0
53 0.00000 45.16730 0.50000 0 0 0
54 0.00000 46.03332 0.00000 0 0 0
55 0.00000 46.89935 0.50000 0 0 0
56 0.00000 47.76537 0.00000 0 0 0
57 0.00000 48.63140 0.50000 0 0 0
58 0.00000 49.49742 0.00000 0 0 0
59 0.00000 50.36345 0.50000 0 0 0
60 0.00000 51.22947 0.00000 0 0 0
61 0.00000 52.09550 0.50000 0 0 0
62 0.00000 52.96152 0.00000 0 0 0
63 0.00000 53.82755 0.50000 0 0 0
64 0.00000 54.69358 0.00000 0 0 0
65 0.00000 55.55960 0.50000 0 0 0
66 0.00000 56.42563 0.00000 0 0 0
67 0.00000 57.29165 0.50000 0 0 0
68 0.00000 58.15768 0.00000 0 0 0
69 0.00000 59.02370 0.50000 0 0 0
70 0.00000 59.88973 0.00000 0 0 0
71 0.00000 60.75575 0.50000 0 0 0
72 0.00000 61.62178 0.00000 0 0 0
73 0.00000 62.48780 0.50000 0 0 0
74 0.00000 63.35383 0.00000 0 0 0
75 0.00000 64.21985 0.50000 0 0 0
76 0.00000 65.08588 0.00000 0 0 0
77 0.00000 65.95191 0.50000 0 0 0
78 0.00000 66.81793 0.00000 0 0 0
79 0.00000 67.68396 0.50000 0 0 0
80 0.00000 68.54998 0.00000 0 0 0
81 0.00000 69.41601 0.50000 0 0 0
82 0.00000 70.28203 0.00000 0 0 0
83 0.00000 71.14806 0.50000 0 0 0
84 0.00000 72.01408 0.00000 0 0 0
85 0.00000 72.88011 0.50000 0 0 0
86 0.00000 73.74613 0.00000 0 0 0
87 0.00000 74.61216 0.50000 0 0 0
88 0.00000 75.47818 0.00000 0 0 0
89 0.00000 76.34421 0.50000 0 0 0
90 0.00000 77.21024 0.00000 0 0 0
91 0.00000 78.07626 0.50000 0 0 0
92 0.00000 78.94229 0.00000 0 0 0
93 0.00000 79.80831 0.50000 0 0 0
94 0.00000 80.67434 0.00000 0 0 0
95 0.00000 81.54036 0.50000 0 0 0
96 0.00000 82.40639 0.00000 0 0 0
97 0.00000 83.27241 0.50000 0 0 0
98 0.00000 84.13844 0.00000 0 0 0
99 0.00000 85.00446 0.50000 0 0 0
100 0.00000 85.87049 0.00000 0 0 0
101 0.00000 86.73651 0.50000 0 0 0
102 0.00000 87.60254 0.00000 0 0 0
103 0.00000 88.46857 0.50000 0 0 0
104 0.00000 89.33459 0.00000 0 0 0
105 0.00000 90.20062 0.50000 0 0 0
106 0.00000 91.06664 0.00000 0 0 0
107 0.00000 91.93267 0.50000 0 0 0
108 0.00000 92.79869 0.00000 0 0 0
109 0.00000 93.66472 0.50000 0 0 0
110 0.00000 94.53074 0.00000 0 0 0
111 0.00000 95.39677 0.50000 0 0 0
112 0.00000 96.26279 0.00000 0 0 0
113 0.00000 97.12882 0.50000 0 0 0
114 0.00000 97.99485 0.00000 0 0 0
115 0.00000 98.86087 0.50000 0 0 0
116 0.00000 99.72690 0.00000 0 0 0
117 0.00000 100.59292 0.50000 0 0 0
118 0.00000 101.45895 0.00000 0 0 0
119 0.00000 102.32497 0.50000 0 0 0
120 0.00000 103.19100 0.00000 0 0 0
121 0.00000 104.05702 0.50000 0 0 0
122 0.00000 104.92305 0.00000 0 0 0
123 0.00000 105.78907 0.50000 0 0 0
124 0.00000 106.65510 0.00000 0 0 0
125 0.00000 107.52112 0.50000 0 0 0
126 0.00000 108.38715 0.00000 0 0 0
127 0.00000 109.25318 0.50000 0 0 0
128 0.00000 110.11920 0.00000 0 0 0
129 0.00000 110.98523 0.50000 0 0 0
130 0.00000 111.85125 0.00000 0 0 0
131 0.00000 112.71728 0.50000 0 0 0
132 0.00000 113.58330 0.00000 0 0 0
133 0.00000 114.44933 0.50000 0 0 0
134 0.00000 115.31535 0.00000 0 0 0
135 0.00000 116.18138 0.50000 0 0 0
136 0.00000 117.04740 0.00000 0 0 0
137 0.00000 117.91343 0.50000 0 0 0
138 0.00000 118.77945 0.00000 0 0 0
139 0.00000 119.64548 0.50000 0 0 0
140 0.00000 120.51151 0.00000 0 0 0
141 0.00000 121.37753 0.50000 0 0 0
142 0.00000 122.24356 0.00000 0 0 0
143 0.00000 123.10958 0.50000 0 0 0
144 0.00000 123.97561 0.00000 0 0 0
145 0.00000 124.84163 0.50000 0 0 0
146 0.00000 125.70766 0.00000 0 0 0
147 0.00000 126.57368 0.50000 0 0 0
148 0.00000 127.43971 0.00000 0 0 0
149 0.00000 128.30573 0.50000 0 0 0
150 0.00000 129.17176 0.00000 0 0 0
151 0.00000 130.03779 0.50000 0 0 0
152 0.00000 130.90381 0.00000 0 0 0
153 0.00000 131.76984 0.50000 0 0 0
154 0.00000 132.63586 0.00000 0 0 0
155 0.00000 133.50189 0.50000 0 0 0
156 0.00000 134.36791 0.00000 0 0 0
157 0.00000 135.23394 0.50000 0 0 0
158 0.00000 136.09996 0.00000 0 0 0
159 0.00000 136.96599 0.50000 0 0 0
160 0.00000 137.83201 0.00000 0 0 0
161 0.00000 138.69804 0.50000 0 0 0
162 0.00000 139.56406 0.00000 0 0 0
163 0.00000 140.43009 0.50000 0 0 0
164 0.00000 141.29612 0.00000 0 0 0
165 0.00000 142.16214 0.50000 0 0 0
166 0.00000 143.02817 0.00000 0 0 0
167 0.00000 143.89419 0.50000 0 0 0
168 0.00000 144.76022 0.00000 0 0 0
169 0.00000 145.62624 0.50000 0 0 0
170 0.00000 146.49227 0.00000 0 0 0
171 0.00000 147.35829 0.50000 0 0 0
172 0.00000 148.22432 0.00000 0 0 0
173 0.00000 149.09034 0.50000 0 0 0
174 0.00000 149.95637 0.00000 0 0 0
175 0.00000 150.82239 0.50000 0 0 0
176 0.00000 151.68842 0.00000 0 0 0
177 0.00000 152.55445 0.50000 0 0 0
178 0.00000 153.42047 0.00000 0 0 0
179 0.00000 154.28650 0.50000 0 0 0
180 0.00000 155.15252 0.00000 0 0 0
181 0.00000 156.01855 0.50000 0 0 0
182 0.00000 156.88457 0.00000 0 0 0
183 0.00000 157.75060 0.50000 0 0 0
184 0.00000 158.61662 0.00000 0 0 0
185 0.00000 159.48265 0.50000 0 0 0
186 0.00000 160.34867 0.00000 0 0 0
187 0.00000 161.21470 0.50000 0 0 0
188 0.00000 162.08073 0.00000 0 0 0
189 0.00000 162.94675 0.50000 0 0 0
190 0.00000 163.81278 0.00000 0 0 0
191 0.00000 164.67880 0.50000 0 0 0
192 0.00000 165.54483 0.00000 0 0 0
193 0.00000 166.41085 0.50000 0 0 0
194 0.00000 167.27688 0.00000 0 0 0
195 0.00000 168.14290 0.50000 0 0 0
196 0.00000 169.00893 0.00000 0 0 0
197 0.00000 169.87495 0.50000 0 0 0
198 0.00000 170.74098 0.00000 0 0 0
199 0.00000 171.60700 0.50000 0 0 0
200 0.00000 172.47303 0.00000 0 0 0
ITEM: TIMESTEP
1000
ITEM: NUMBER OF ATOMS
200
ITEM: BOX BOUNDS pp pp pp
-1.0000000000000000e+03 1.0000000000000000e+03
-1.0000000000000000e+03 1.0000000000000000e+03
-1.0000000000000000e+03 1.0000000000000000e+03
ITEM: ATOMS id x y z ix iy iz
162 -0.33763 139.07454 -0.60388 0 0 0
87 -0.12630 74.37906 0.11144 0 0 0
155 0.66606 132.82021 -0.31393 0 0 0
154 0.82036 132.02466 -0.89927 0 0 0
153 0.44584 131.09482 -0.55850 0 0 0
152 0.51166 130.10043 -0.36835 0 0 0
151 0.56416 129.13445 -0.31584 0 0 0
147 1.35565 125.62769 -0.74387 0 0 0
149 0.73133 127.35859 -1.21680 0 0 0
85 -0.29911 72.84418 -0.91430 0 0 0
65 1.45694 55.39112 -0.21946 0 0 0
161 -0.52156 138.03804 -0.32240 0 0 0
156 0.26529 133.67253 -0.51554 0 0 0
74 0.87054 63.12162 -0.68413 0 0 0
75 0.53697 63.97547 -0.89018 0 0 0
27 0.08829 22.33828 -0.05818 0 0 0
77 0.27732 65.85471 -1.24573 0 0 0
157 -0.19475 134.59523 -0.71845 0 0 0
81 -0.20150 69.48414 -0.91293 0 0 0
78 -0.07864 66.76754 -1.34735 0 0 0
146 1.70658 124.82702 -1.26154 0 0 0
71 0.21757 60.40582 -0.63723 0 0 0
79 -0.43872 67.70107 -1.28223 0 0 0
82 -0.29753 70.08082 -1.67604 0 0 0
145 1.66465 123.93826 -1.58497 0 0 0
14 -1.68753 11.58373 -0.36364 0 0 0
83 -0.27754 70.96431 -1.32704 0 0 0
84 -0.53834 71.85827 -0.98860 0 0 0
80 -0.06939 68.58147 -1.01709 0 0 0
86 0.12757 73.60085 -0.47509 0 0 0
150 0.44641 128.33587 -0.81890 0 0 0
70 -0.03315 59.45419 -0.57193 0 0 0
69 0.38975 58.53198 -0.45909 0 0 0
148 0.93632 126.41415 -1.12290 0 0 0
30 0.62208 25.41367 -0.21514 0 0 0
29 0.51547 24.44324 -0.21664 0 0 0
73 0.93648 62.07606 -0.96648 0 0 0
72 0.23431 61.39756 -0.93672 0 0 0
24 -0.15044 19.72395 -0.81099 0 0 0
28 0.25753 23.44511 0.05470 0 0 0
76 0.54781 64.91676 -0.97455 0 0 0
23 -1.05015 19.62094 -0.62460 0 0 0
22 -1.00854 18.68670 -0.91372 0 0 0
21 -1.37986 17.80150 -1.13238 0 0 0
25 -0.17459 20.70063 -0.89779 0 0 0
20 -1.57219 17.00205 -0.67482 0 0 0
19 -1.98238 16.22617 -0.24901 0 0 0
159 -0.69213 136.18279 0.25548 0 0 0
67 1.25817 57.28315 0.26895 0 0 0
26 -0.29056 21.58596 -0.49391 0 0 0
18 -1.91589 15.22509 -0.51115 0 0 0
13 -1.16394 10.70428 -0.18581 0 0 0
16 -1.36118 13.43819 -0.48386 0 0 0
17 -1.39228 14.38106 -0.78903 0 0 0
15 -1.65368 12.54652 -0.07363 0 0 0
160 -0.49663 137.11571 -0.32026 0 0 0
59 0.20075 50.18235 -0.81860 0 0 0
63 0.95721 53.88628 -0.96873 0 0 0
62 0.87436 53.05938 -0.48971 0 0 0
141 0.49718 120.61934 -0.85328 0 0 0
142 0.47550 121.57195 -0.45907 0 0 0
60 0.26090 51.24837 -0.93907 0 0 0
143 1.11010 122.22290 -0.94154 0 0 0
58 0.09901 49.22741 -0.66904 0 0 0
181 0.79467 155.93496 -0.48051 0 0 0
172 1.10718 148.22688 -0.57201 0 0 0
116 -0.90792 99.91556 -0.22370 0 0 0
173 0.80413 149.08502 -0.44846 0 0 0
165 0.12581 141.87182 -0.24788 0 0 0
166 0.20902 142.80969 -0.46233 0 0 0
61 0.52289 52.14218 -0.64992 0 0 0
163 -0.16487 139.99919 -0.69978 0 0 0
176 1.42758 151.88963 -0.37931 0 0 0
174 1.27892 150.00436 -0.67011 0 0 0
144 1.49824 123.03615 -1.31750 0 0 0
170 0.77493 146.21982 -0.89911 0 0 0
178 0.90097 153.58920 -0.00621 0 0 0
167 0.08495 143.71060 -1.04530 0 0 0
118 -0.11041 101.05360 -0.55520 0 0 0
164 -0.25729 140.94184 -0.32029 0 0 0
33 0.56899 28.15806 0.34497 0 0 0
179 1.41135 154.15045 -0.56475 0 0 0
34 0.15051 29.04869 0.21182 0 0 0
180 1.41241 155.10356 -0.53875 0 0 0
169 1.02231 145.33730 -0.60288 0 0 0
119 0.18860 101.98098 -0.52196 0 0 0
57 0.26470 48.50520 0.01788 0 0 0
131 0.26369 112.56352 0.09260 0 0 0
171 0.95969 147.24655 -0.81026 0 0 0
64 1.00018 54.56685 -0.31259 0 0 0
11 0.19469 9.58555 0.23356 0 0 0
120 0.42536 102.89199 -0.69918 0 0 0
168 0.43784 144.65810 -0.87918 0 0 0
191 -0.15211 163.51821 1.33451 0 0 0
2 1.18063 3.34929 3.96217 0 0 0
3 1.04695 4.38794 4.09756 0 0 0
4 0.31265 4.95443 3.78609 0 0 0
5 0.65216 5.88127 3.47980 0 0 0
6 0.70786 6.82687 3.07719 0 0 0
7 -0.00627 7.42334 2.95768 0 0 0
8 0.00845 8.36826 2.68645 0 0 0
9 0.47524 9.00754 2.11016 0 0 0
10 0.57359 9.20122 1.11826 0 0 0
198 1.91969 168.83782 0.61767 0 0 0
182 0.72142 156.51002 0.46387 0 0 0
139 1.47646 119.30035 0.01360 0 0 0
197 1.23912 168.13089 0.51676 0 0 0
138 1.09793 118.46752 0.43392 0 0 0
137 0.76751 117.51560 0.31492 0 0 0
199 2.39585 169.75337 0.62294 0 0 0
113 -0.73950 97.65496 0.84468 0 0 0
1 1.84882 2.88128 3.37851 0 0 0
126 0.37624 108.15000 0.07115 0 0 0
115 -1.11583 99.04973 0.14783 0 0 0
175 1.44414 150.87929 -0.35071 0 0 0
125 0.44993 107.18842 -0.01159 0 0 0
109 -0.35159 93.98223 1.92236 0 0 0
55 0.67091 47.17436 1.01806 0 0 0
66 1.33799 56.27384 0.20940 0 0 0
196 1.05513 167.29766 0.93490 0 0 0
110 -0.82327 94.65430 1.36358 0 0 0
112 -0.95423 96.68304 0.88110 0 0 0
128 0.79073 109.87068 0.61908 0 0 0
177 1.05067 152.84479 -0.54030 0 0 0
32 1.01737 27.36701 -0.10598 0 0 0
124 0.21953 106.27094 0.11348 0 0 0
127 0.48353 108.97354 0.55304 0 0 0
35 0.70484 29.76259 -0.32769 0 0 0
36 0.65115 30.65312 0.18528 0 0 0
37 -0.04282 31.39313 0.13255 0 0 0
38 -0.21735 32.38040 0.43289 0 0 0
39 0.31259 33.18665 0.71723 0 0 0
108 -0.43018 93.03390 1.85889 0 0 0
107 0.02615 92.36937 1.33093 0 0 0
42 0.21765 35.60087 1.22187 0 0 0
195 1.53855 166.48563 0.90885 0 0 0
194 1.10619 165.57882 0.76727 0 0 0
193 1.07773 164.89223 1.47699 0 0 0
192 0.25758 164.39828 1.72457 0 0 0
56 0.34585 48.01144 0.84500 0 0 0
48 0.17543 40.80426 0.70358 0 0 0
49 0.36920 41.59911 1.17245 0 0 0
50 0.77281 42.54257 1.25144 0 0 0
51 0.97671 43.42655 1.62815 0 0 0
52 0.55440 44.28447 1.31558 0 0 0
53 0.83828 45.20204 1.09059 0 0 0
54 0.71010 46.20427 0.89976 0 0 0
106 0.32934 91.47084 1.50677 0 0 0
41 0.04372 34.64694 1.08204 0 0 0
105 0.69241 90.42675 1.48426 0 0 0
104 0.89771 89.52694 1.91160 0 0 0
190 0.14053 162.69634 1.84787 0 0 0
43 0.30276 36.57393 1.44673 0 0 0
134 1.11320 114.80972 0.13061 0 0 0
103 0.53298 88.61873 1.96929 0 0 0
111 -0.93284 95.61170 1.00302 0 0 0
102 0.27419 87.64564 2.08879 0 0 0
189 0.47661 161.82699 1.87843 0 0 0
188 0.23999 161.05610 2.38720 0 0 0
40 -0.08995 34.01555 0.35599 0 0 0
117 -0.68737 100.76543 0.16189 0 0 0
114 -1.15371 98.07227 0.06680 0 0 0
184 -0.06216 158.28293 1.14173 0 0 0
12 -0.75400 9.89982 -0.00431 0 0 0
135 1.01441 115.76757 -0.13624 0 0 0
136 1.27398 116.68445 0.13373 0 0 0
187 0.61994 160.19909 2.17019 0 0 0
186 0.75523 159.32543 1.79670 0 0 0
185 0.82553 158.60889 1.09178 0 0 0
183 0.19185 157.27301 0.68023 0 0 0
101 0.40927 86.68050 1.92562 0 0 0
100 0.60349 85.81466 1.40163 0 0 0
47 0.57558 39.95156 0.49277 0 0 0
123 0.73960 105.50045 0.11010 0 0 0
44 0.34052 37.47917 1.16660 0 0 0
121 0.10519 103.69005 -0.33413 0 0 0
122 0.74815 104.44574 -0.07325 0 0 0
46 0.70178 39.03252 0.26454 0 0 0
99 0.86607 84.82761 1.45266 0 0 0
133 0.92620 113.92249 -0.04982 0 0 0
132 0.61983 113.25530 0.65787 0 0 0
89 -0.49333 76.29181 0.54088 0 0 0
45 0.17045 38.41886 0.85243 0 0 0
91 -0.68445 78.04396 0.83510 0 0 0
92 0.01354 78.73383 0.83054 0 0 0
93 0.69353 79.36780 0.58966 0 0 0
94 1.11593 80.26258 0.69146 0 0 0
95 1.18109 81.22571 1.09754 0 0 0
96 1.39944 82.14448 0.86800 0 0 0
97 1.51489 83.11018 1.07591 0 0 0
98 1.00023 83.83038 1.45441 0 0 0
129 0.35945 110.66721 0.33544 0 0 0
90 -0.25809 77.18455 0.89355 0 0 0
88 -0.45989 75.27717 0.35330 0 0 0
130 0.29213 111.63839 0.16551 0 0 0
158 -0.30213 135.48581 -0.32797 0 0 0
200 1.75442 169.94839 1.35155 0 0 0
68 1.02355 58.21954 0.17854 0 0 0
140 1.24683 120.11017 -0.44530 0 0 0
31 0.71387 26.44448 -0.18777 0 0 0
ITEM: TIMESTEP
2000
ITEM: NUMBER OF ATOMS
200
ITEM: BOX BOUNDS pp pp pp
-1.0000000000000000e+03 1.0000000000000000e+03
-1.0000000000000000e+03 1.0000000000000000e+03
-1.0000000000000000e+03 1.0000000000000000e+03
ITEM: ATOMS id x y z ix iy iz
28 0.06641 24.98873 -0.64763 0 0 0
154 1.23151 131.64385 -0.09537 0 0 0
25 0.63015 22.74595 -1.35556 0 0 0
171 0.52095 145.46267 -1.18577 0 0 0
153 0.95650 130.76856 -0.44460 0 0 0
152 0.71488 129.83485 -0.29898 0 0 0
151 0.73420 128.86110 -0.30522 0 0 0
65 2.13074 55.42394 -1.49978 0 0 0
149 2.14535 127.53588 -0.40097 0 0 0
180 1.69799 153.24643 -1.47887 0 0 0
136 1.95851 117.05163 -0.53178 0 0 0
77 0.41389 66.07386 -1.08327 0 0 0
168 0.02668 143.50169 -0.69584 0 0 0
158 0.67327 135.36973 -0.11875 0 0 0
27 0.46434 24.17946 -1.09709 0 0 0
78 0.89893 66.79716 -0.49908 0 0 0
156 1.03979 133.47618 -0.19932 0 0 0
146 2.42734 124.64189 -0.64434 0 0 0
157 0.83928 134.39976 -0.31865 0 0 0
29 0.39411 25.94364 -0.37421 0 0 0
79 1.09813 67.55136 0.00876 0 0 0
137 1.70561 117.78493 -0.00322 0 0 0
24 0.72215 21.81817 -1.05926 0 0 0
69 1.64254 58.72952 -1.68900 0 0 0
145 2.38798 123.66456 -0.68914 0 0 0
138 1.42180 118.49682 -0.62382 0 0 0
140 1.55310 120.16898 -0.95914 0 0 0
169 0.78231 143.69871 -1.22676 0 0 0
67 1.81334 57.07755 -2.10930 0 0 0
64 1.46542 54.85292 -1.13906 0 0 0
150 1.42325 128.13205 -0.06184 0 0 0
139 1.82413 119.27218 -1.11336 0 0 0
155 0.89041 132.53603 -0.38580 0 0 0
148 2.09494 126.52334 -0.68009 0 0 0
91 1.23295 78.63034 0.24721 0 0 0
174 1.22776 148.04124 -0.93901 0 0 0
93 0.58245 80.42861 -0.37685 0 0 0
26 0.76149 23.61365 -1.83529 0 0 0
160 0.19823 137.29806 -0.63210 0 0 0
173 0.46926 147.36272 -0.92221 0 0 0
170 0.76466 144.63094 -1.59147 0 0 0
132 1.28951 113.31758 -1.37927 0 0 0
68 2.11791 58.01211 -2.05360 0 0 0
142 1.88955 121.59036 0.03769 0 0 0
144 2.21555 123.09913 0.08481 0 0 0
20 1.71300 18.59545 -0.70683 0 0 0
172 0.56347 146.42046 -0.87643 0 0 0
176 1.31746 149.94954 -0.74045 0 0 0
31 0.07657 26.98537 0.60527 0 0 0
143 2.30399 122.31508 0.57185 0 0 0
66 2.21977 56.22512 -1.99077 0 0 0
131 0.47731 113.14813 -0.75888 0 0 0
73 0.48697 62.43607 -1.09316 0 0 0
178 1.06329 151.85107 -0.40059 0 0 0
74 0.34240 63.43895 -1.19175 0 0 0
177 1.18105 150.97418 -0.66281 0 0 0
175 1.10903 148.98698 -0.81553 0 0 0
182 2.48127 154.70284 -0.60025 0 0 0
141 1.70978 121.14403 -0.79352 0 0 0
22 0.80443 19.93903 -0.51498 0 0 0
30 0.53984 26.01875 0.53737 0 0 0
181 2.18374 153.85087 -0.92168 0 0 0
95 1.19690 82.24463 -0.37832 0 0 0
21 0.96286 19.04445 -0.17977 0 0 0
23 0.97815 20.87224 -0.70138 0 0 0
71 1.41536 60.62188 -1.05163 0 0 0
62 0.85639 53.01492 -0.72532 0 0 0
94 0.64969 81.39256 -0.41722 0 0 0
179 1.66122 152.61486 -0.76909 0 0 0
63 1.29418 53.87035 -0.78388 0 0 0
75 0.03624 64.36436 -1.17847 0 0 0
76 -0.19551 65.32032 -1.05854 0 0 0
72 0.92562 61.49657 -1.11915 0 0 0
8 0.57978 9.21707 0.21535 0 0 0
9 0.34740 10.19081 0.04020 0 0 0
10 0.56326 11.18084 -0.01119 0 0 0
98 0.60425 84.92737 0.21192 0 0 0
130 0.11311 112.42471 -0.24501 0 0 0
159 0.45669 136.37398 -0.38949 0 0 0
97 0.71126 83.99486 -0.14512 0 0 0
96 1.01429 83.17507 -0.47525 0 0 0
134 1.55362 115.22146 -1.09758 0 0 0
85 1.30897 73.09369 0.77104 0 0 0
70 1.45207 59.63799 -1.10285 0 0 0
133 1.56260 114.21579 -1.20134 0 0 0
19 1.16535 17.82791 -0.48413 0 0 0
147 2.09378 125.49657 -0.61802 0 0 0
12 1.88296 12.09745 -0.12116 0 0 0
161 0.60134 138.08917 -0.97984 0 0 0
162 0.39316 139.09134 -0.45139 0 0 0
191 1.01948 160.57630 1.70036 0 0 0
2 1.61871 7.11380 2.36988 0 0 0
3 0.76654 6.80702 2.03458 0 0 0
4 -0.08823 7.28286 2.45210 0 0 0
5 -0.55630 7.97203 1.86581 0 0 0
6 -0.03301 7.67992 1.04957 0 0 0
7 0.65123 8.25332 0.53829 0 0 0
59 0.55451 50.72896 0.92051 0 0 0
164 0.62515 140.75580 0.41804 0 0 0
163 0.60651 139.92503 -0.01849 0 0 0
198 -2.53526 162.19522 1.94130 0 0 0
88 1.41427 75.92721 0.62524 0 0 0
126 0.84435 109.10118 0.68034 0 0 0
197 -2.62049 162.54099 1.06546 0 0 0
200 -1.39437 162.82070 3.43835 0 0 0
56 1.14740 48.02237 0.60816 0 0 0
199 -2.07889 162.40480 2.81957 0 0 0
113 -1.02424 97.81366 1.91689 0 0 0
1 2.37509 7.61643 2.74139 0 0 0
129 0.30390 111.38784 -0.28841 0 0 0
60 0.72750 51.47125 0.14041 0 0 0
116 0.25612 100.38452 1.56804 0 0 0
128 0.74811 110.77152 0.30958 0 0 0
109 -0.21600 94.63018 2.27844 0 0 0
58 0.77556 49.78201 0.69471 0 0 0
86 1.29034 73.98567 1.16000 0 0 0
196 -1.80236 162.29697 0.57031 0 0 0
110 0.09441 95.57583 2.19390 0 0 0
112 -0.16598 97.32923 1.94237 0 0 0
115 -0.41698 99.69849 2.01501 0 0 0
57 0.68737 48.84402 0.55914 0 0 0
17 1.77671 16.22806 0.25002 0 0 0
35 -0.39113 30.78678 0.38985 0 0 0
127 1.30469 110.07071 0.64852 0 0 0
53 1.02770 45.69715 1.15287 0 0 0
15 1.28658 14.45203 0.17207 0 0 0
45 0.05583 39.15780 2.60302 0 0 0
61 0.30758 52.34170 -0.26983 0 0 0
54 1.53283 46.43617 0.74365 0 0 0
108 -0.31614 93.60651 2.24614 0 0 0
107 -0.21557 92.74989 1.77086 0 0 0
118 1.39649 102.01054 1.52163 0 0 0
195 -1.39643 161.97635 -0.24447 0 0 0
194 -0.68201 162.01961 0.46024 0 0 0
193 -0.15493 161.95844 1.27119 0 0 0
192 0.20108 161.11530 1.71805 0 0 0
13 2.11587 13.03785 0.22219 0 0 0
48 1.35308 41.37950 2.37535 0 0 0
49 0.92044 42.14247 1.97415 0 0 0
50 0.81100 42.84692 1.25623 0 0 0
51 0.84948 43.83577 1.50437 0 0 0
14 1.71121 13.77348 0.80965 0 0 0
38 -0.73497 32.96791 1.33905 0 0 0
124 0.65664 107.57665 1.37559 0 0 0
106 0.54565 92.02721 1.51018 0 0 0
87 1.26750 74.95661 0.80989 0 0 0
105 0.55387 91.01828 1.44553 0 0 0
104 0.59718 89.94448 1.56625 0 0 0
190 1.33384 159.98073 1.00168 0 0 0
43 0.06593 37.36098 2.58843 0 0 0
119 0.70377 102.74694 1.42382 0 0 0
103 0.18116 89.10717 1.36174 0 0 0
111 -0.28080 96.36787 1.78677 0 0 0
102 0.81950 88.37608 1.07795 0 0 0
189 2.09330 159.66982 0.39722 0 0 0
188 2.40096 158.81894 0.14397 0 0 0
55 0.79047 47.08684 0.73124 0 0 0
46 0.71702 39.77921 2.29264 0 0 0
16 1.56003 15.36314 0.27259 0 0 0
184 2.25567 156.23049 0.48532 0 0 0
114 -0.78376 98.80045 1.85277 0 0 0
44 0.25071 38.20914 2.86033 0 0 0
47 0.66830 40.73648 2.59179 0 0 0
187 2.74401 158.09755 0.68414 0 0 0
186 2.84838 157.37230 1.33333 0 0 0
185 2.15125 156.68564 1.32895 0 0 0
183 2.46207 155.57709 -0.26581 0 0 0
101 0.19361 87.78325 0.56442 0 0 0
100 0.41196 86.87161 0.42637 0 0 0
99 0.33014 85.94144 0.17303 0 0 0
36 -0.24782 31.72641 0.21621 0 0 0
37 -0.10552 32.54511 0.73081 0 0 0
11 1.02438 11.98646 0.34515 0 0 0
117 0.94429 101.15077 1.52345 0 0 0
34 -0.21882 29.83671 0.37615 0 0 0
125 0.19198 108.42302 1.10326 0 0 0
120 0.47145 103.71508 1.43761 0 0 0
52 0.64981 44.77572 1.04264 0 0 0
39 -0.82269 33.94092 1.10305 0 0 0
123 0.68855 106.59839 1.19152 0 0 0
40 -0.71905 34.88295 1.28727 0 0 0
42 -0.00792 36.47409 2.20422 0 0 0
18 1.54084 17.09481 0.05433 0 0 0
121 0.77219 104.70901 1.60995 0 0 0
41 -0.57009 35.73412 1.86452 0 0 0
122 0.73399 105.56429 1.21526 0 0 0
135 1.78261 116.20372 -0.93606 0 0 0
80 1.50139 68.41439 -0.05898 0 0 0
81 1.75220 69.38250 -0.16906 0 0 0
82 1.57218 70.29191 -0.05317 0 0 0
92 0.92943 79.53529 -0.01931 0 0 0
89 1.03549 76.79541 0.83605 0 0 0
90 0.97118 77.75705 0.73747 0 0 0
166 0.74725 142.31786 0.68082 0 0 0
167 0.27576 142.72409 -0.09367 0 0 0
84 1.36029 72.07560 0.63100 0 0 0
83 1.23035 71.24979 0.07271 0 0 0
165 0.70847 141.47668 1.06793 0 0 0
32 0.10354 27.88069 0.21419 0 0 0
33 -0.01000 28.91274 0.46004 0 0 0
ITEM: TIMESTEP
3000
ITEM: NUMBER OF ATOMS
200
ITEM: BOX BOUNDS pp pp pp
-1.0000000000000000e+03 1.0000000000000000e+03
-1.0000000000000000e+03 1.0000000000000000e+03
-1.0000000000000000e+03 1.0000000000000000e+03
ITEM: ATOMS id x y z ix iy iz
89 0.60956 76.56694 -0.44653 0 0 0
81 1.05146 69.39773 -0.81750 0 0 0
90 0.60790 77.28600 0.13884 0 0 0
25 0.15147 22.01717 -0.45542 0 0 0
80 0.64269 68.54117 -0.93026 0 0 0
84 1.13522 72.31094 -0.82775 0 0 0
135 0.54924 115.99243 -0.13990 0 0 0
65 0.45671 55.77095 -0.44115 0 0 0
190 2.03715 159.08700 -0.52377 0 0 0
192 0.77532 160.12310 0.38246 0 0 0
11 2.37198 15.44759 -0.54005 0 0 0
77 -0.40292 66.12050 -0.97241 0 0 0
176 0.60497 148.56478 -0.90868 0 0 0
186 -0.31635 156.43799 -0.18641 0 0 0
91 0.30440 78.15684 0.38823 0 0 0
78 0.10567 66.97148 -1.16477 0 0 0
5 1.20226 12.27972 -0.86441 0 0 0
136 1.01077 116.91907 -0.01711 0 0 0
174 1.31589 146.97127 -0.49217 0 0 0
62 1.21173 52.99666 -0.31889 0 0 0
79 -0.09164 67.91672 -0.88242 0 0 0
137 0.97099 117.82087 -0.47334 0 0 0
139 0.52733 119.63696 -0.73077 0 0 0
69 0.43822 59.57216 -1.06954 0 0 0
177 -0.09214 149.29223 -0.55160 0 0 0
26 0.26091 22.98778 -0.55713 0 0 0
71 0.93713 61.23357 -0.79379 0 0 0
188 0.52259 157.98007 -0.54430 0 0 0
67 0.29356 57.47862 -0.81813 0 0 0
64 0.44047 54.73056 -0.28918 0 0 0
35 -0.90525 29.66599 0.08698 0 0 0
189 1.46104 158.26915 -0.59544 0 0 0
175 1.24735 147.84866 -0.92941 0 0 0
85 1.17438 73.28080 -1.08966 0 0 0
183 -0.34363 154.02299 0.04057 0 0 0
138 0.63572 118.65927 -0.82577 0 0 0
82 0.86057 70.37081 -0.86838 0 0 0
87 0.65835 74.85432 -1.12564 0 0 0
83 0.72815 71.31613 -0.72187 0 0 0
12 2.86519 16.07834 -0.05207 0 0 0
187 0.28974 157.06210 -0.55069 0 0 0
63 0.80127 53.85398 -0.45663 0 0 0
68 0.25264 58.42802 -0.97674 0 0 0
4 1.60247 11.43359 -1.32556 0 0 0
72 0.76370 62.22681 -0.93721 0 0 0
76 -0.06026 65.58366 -1.70856 0 0 0
88 0.94205 75.72916 -0.87107 0 0 0
3 2.54497 11.64295 -1.17172 0 0 0
191 1.52801 159.82455 -0.05060 0 0 0
140 0.05952 119.66106 0.11222 0 0 0
66 0.20844 56.64407 -0.37883 0 0 0
70 0.83919 60.41317 -1.34251 0 0 0
73 -0.06722 62.82404 -1.21389 0 0 0
141 -0.08182 120.44441 -0.43616 0 0 0
74 -0.05380 63.72550 -1.63685 0 0 0
184 -0.60494 154.69491 -0.62031 0 0 0
86 0.77845 74.03713 -0.56514 0 0 0
60 1.00783 51.37810 0.08263 0 0 0
75 0.02711 64.62895 -1.22305 0 0 0
61 1.24725 52.10023 -0.65349 0 0 0
59 1.23039 50.36952 -0.10426 0 0 0
2 2.96869 11.22428 -0.35251 0 0 0
58 1.59003 49.49799 0.30760 0 0 0
160 -0.24041 136.77257 0.25620 0 0 0
173 1.02253 146.22242 -0.00929 0 0 0
178 -0.51465 150.08458 -0.19933 0 0 0
27 0.29829 23.89381 -0.17713 0 0 0
193 0.02149 160.68054 0.43378 0 0 0
6 1.98797 12.58081 -0.40673 0 0 0
24 0.99683 21.57922 -0.29965 0 0 0
155 1.10525 133.13474 1.74753 0 0 0
156 0.53374 133.68606 1.22607 0 0 0
15 2.35092 17.23633 1.86642 0 0 0
95 0.00650 81.87355 0.92929 0 0 0
132 0.11867 113.56926 1.22180 0 0 0
20 0.26155 19.54340 0.78711 0 0 0
128 0.34865 110.05376 0.95757 0 0 0
31 -0.03988 26.57643 0.99660 0 0 0
164 -1.24314 139.46499 2.23836 0 0 0
9 2.28323 14.67463 0.37561 0 0 0
198 -2.56429 161.35981 3.24788 0 0 0
149 0.70954 127.54346 1.16771 0 0 0
126 0.61063 108.11378 0.88810 0 0 0
197 -1.94221 161.61007 2.57441 0 0 0
200 -3.88200 161.99424 2.13517 0 0 0
14 3.18797 17.28359 1.31224 0 0 0
199 -3.32039 161.27365 2.61632 0 0 0
113 -1.26973 96.73674 2.09002 0 0 0
1 3.03730 10.99969 0.67143 0 0 0
181 -0.22099 152.05446 0.15771 0 0 0
147 1.20948 125.57862 1.36019 0 0 0
116 -1.13166 99.22474 1.14026 0 0 0
130 0.20780 111.58345 0.93167 0 0 0
109 0.33186 93.56046 2.26072 0 0 0
93 0.06698 80.24485 0.18503 0 0 0
50 0.08700 41.97785 1.13480 0 0 0
196 -1.69560 161.89298 1.66197 0 0 0
110 0.00277 94.50450 2.03161 0 0 0
112 -0.76216 95.93770 1.88512 0 0 0
115 -0.80100 98.50916 1.76254 0 0 0
161 -0.10558 137.70743 0.45953 0 0 0
159 0.55883 136.27668 -0.03045 0 0 0
51 0.43700 42.92851 0.74898 0 0 0
127 0.36456 109.07350 1.11445 0 0 0
131 0.27258 112.52060 1.10600 0 0 0
98 -0.71769 84.50087 1.02002 0 0 0
45 1.24254 37.77012 0.70459 0 0 0
99 -0.71841 85.45635 0.94128 0 0 0
7 2.48554 13.02781 0.30228 0 0 0
108 0.25959 92.55322 2.34162 0 0 0
107 0.29340 91.63544 2.01511 0 0 0
118 -0.97211 101.18941 0.63354 0 0 0
165 -1.07015 140.40629 2.38621 0 0 0
194 -0.34166 161.59230 0.47821 0 0 0
19 0.57866 19.24474 1.61181 0 0 0
148 1.15465 126.66786 1.27829 0 0 0
162 -0.79541 138.33367 0.79400 0 0 0
48 1.03114 40.45177 0.46040 0 0 0
49 0.50234 41.18358 0.67387 0 0 0
29 -0.08634 25.35721 0.47816 0 0 0
180 -0.38237 151.11550 0.22799 0 0 0
195 -0.95813 162.12062 1.02764 0 0 0
151 1.17431 129.36623 1.50504 0 0 0
124 0.65872 106.38241 1.40856 0 0 0
106 0.14382 90.83548 1.49895 0 0 0
97 -0.54357 83.46342 0.76079 0 0 0
105 0.13536 89.87461 1.47051 0 0 0
104 0.27858 88.98829 1.69235 0 0 0
169 0.67955 143.12924 1.80469 0 0 0
13 3.41173 16.71788 0.49555 0 0 0
119 -0.83767 102.14952 0.93119 0 0 0
103 0.39071 87.99356 1.79510 0 0 0
111 -0.42172 95.25442 2.49674 0 0 0
102 -0.26815 87.95968 0.96869 0 0 0
179 -1.22656 150.72489 0.00291 0 0 0
145 0.38505 123.78372 1.25247 0 0 0
163 -0.87507 138.96527 1.51652 0 0 0
46 0.98745 38.69000 1.09429 0 0 0
146 0.83660 124.63022 1.47451 0 0 0
96 -0.75549 82.48646 0.56370 0 0 0
114 -0.82685 97.51805 1.65080 0 0 0
44 1.04218 36.91476 1.13621 0 0 0
47 0.75398 39.61064 0.79876 0 0 0
157 0.45628 134.57987 0.84304 0 0 0
158 0.57700 135.60038 0.76998 0 0 0
121 0.06720 103.84803 0.81903 0 0 0
167 -0.60578 141.81328 1.48003 0 0 0
101 -0.33756 87.15984 1.53469 0 0 0
100 -0.78787 86.29664 1.37166 0 0 0
166 -0.96189 141.31913 2.36215 0 0 0
94 0.42588 81.22997 0.37918 0 0 0
42 0.08291 35.27539 1.04076 0 0 0
150 0.74918 128.49103 1.60236 0 0 0
117 -0.95816 100.20602 0.78287 0 0 0
23 1.77981 21.06953 0.06551 0 0 0
125 0.62672 107.47354 1.59482 0 0 0
120 -0.27014 102.90959 0.87757 0 0 0
41 0.25149 34.44530 0.50317 0 0 0
122 0.63543 104.67586 0.83424 0 0 0
123 0.62771 105.71081 0.79747 0 0 0
28 -0.11669 24.30388 0.59383 0 0 0
92 0.00189 79.18549 0.35960 0 0 0
30 -0.15717 25.71720 1.39915 0 0 0
129 0.03471 110.74455 1.45582 0 0 0
16 1.52470 17.04711 1.45531 0 0 0
154 1.39712 132.19448 1.54700 0 0 0
168 0.20517 142.30320 1.57280 0 0 0
153 1.12092 131.22197 1.18746 0 0 0
133 0.12061 114.17302 0.46212 0 0 0
22 1.42359 20.41545 0.80946 0 0 0
170 0.71252 143.93110 1.29825 0 0 0
152 1.00051 130.19870 0.98704 0 0 0
17 1.50996 17.70598 0.74296 0 0 0
39 0.71539 32.83279 0.53407 0 0 0
18 1.04437 18.67374 0.91804 0 0 0
40 0.88107 33.74031 0.29578 0 0 0
8 2.29491 13.85691 0.84375 0 0 0
32 -0.57031 27.32278 0.54151 0 0 0
21 0.59575 20.28505 1.23769 0 0 0
34 -0.47133 28.91606 0.65547 0 0 0
55 1.09113 46.69820 0.18229 0 0 0
171 1.08665 145.00735 1.46681 0 0 0
54 0.99202 45.73946 0.43734 0 0 0
52 0.29121 43.91501 0.59017 0 0 0
43 0.28590 36.16815 1.19945 0 0 0
143 -0.13757 122.06370 0.56114 0 0 0
37 0.25443 30.98281 0.23741 0 0 0
142 0.33872 121.17100 0.17099 0 0 0
36 -0.01037 30.02073 0.29867 0 0 0
185 -0.22620 155.45935 -0.05127 0 0 0
134 0.44536 114.97693 0.02641 0 0 0
33 -0.08208 28.06508 0.88584 0 0 0
56 1.43506 47.61325 0.29035 0 0 0
10 1.70670 15.45485 0.20380 0 0 0
38 0.58387 31.85915 0.46774 0 0 0
172 1.05934 145.50825 0.66010 0 0 0
144 -0.08572 122.94081 1.06114 0 0 0
53 0.72300 44.82840 0.64567 0 0 0
182 -0.28770 153.00453 -0.00410 0 0 0
57 1.50364 48.59750 0.20638 0 0 0
ITEM: TIMESTEP
4000
ITEM: NUMBER OF ATOMS
200
ITEM: BOX BOUNDS pp pp pp
-1.0000000000000000e+03 1.0000000000000000e+03
-1.0000000000000000e+03 1.0000000000000000e+03
-1.0000000000000000e+03 1.0000000000000000e+03
ITEM: ATOMS id x y z ix iy iz
184 -1.35020 154.13227 -0.09493 0 0 0
81 -0.04896 69.24931 0.28241 0 0 0
173 -0.53087 145.29160 -1.08436 0 0 0
171 0.57852 144.33430 -0.83667 0 0 0
80 0.14493 68.26148 0.52343 0 0 0
84 0.63508 71.54158 -1.08301 0 0 0
176 -0.07203 147.42741 -1.21249 0 0 0
6 1.73993 12.11531 -1.08851 0 0 0
75 0.86683 63.84111 -0.42637 0 0 0
5 1.09614 11.68844 -0.57632 0 0 0
89 0.64353 75.85580 -0.22007 0 0 0
77 0.94122 65.83147 -0.46817 0 0 0
167 -0.84208 141.95259 0.44848 0 0 0
52 0.85244 45.48229 -0.78607 0 0 0