ITEM: TIMESTEP
0
ITEM: NUMBER OF ATOMS
300
ITEM: BOX BOUNDS pp pp pp
-1.0000000000000000e+03 1.0000000000000000e+03
-1.0000000000000000e+03 1.0000000000000000e+03
-1.0000000000000000e+03 1.0000000000000000e+03
ITEM: ATOMS id x y z ix iy iz
1 0.00000 0.00000 0.00000 0 0 0
2 0.00000 1.00000 0.00000 0 0 0
3 0.00000 1.86603 0.50000 0 0 0
4 0.00000 2.73205 0.00000 0 0 0
5 0.00000 3.59808 0.50000 0 0 0
6 0.00000 4.46410 0.00000 0 0 0
7 0.00000 5.33013 0.50000 0 0 0
8 0.00000 6.19615 0.00000 0 0 0
9 0.00000 7.06218 0.50000 0 0 0
10 0.00000 7.92820 0.00000 0 0 0
11 0.00000 8.79423 0.50000 0 0 0
12 0.00000 9.66025 0.00000 0 0 0
13 0.00000 10.52628 0.50000 0 0 0
14 0.00000 11.39230 0.00000 0 0 0
15 0.00000 12.25833 0.50000 0 0 0
16 0.00000 13.12436 0.00000 0 0 0
17 0.00000 13.99038 0.50000 0 0 0
18 0.00000 14.85641 0.00000 0 0 0
19 0.00000 15.72243 0.50000 0 0 0
20 0.00000 16.58846 0.00000 0 0 0
21 0.00000 17.45448 0.50000 0 0 0
22 0.00000 18.32051 0.00000 0 0 0
23 0.00000 19.18653 0.50000 0 0 0
24 0.00000 20.05256 0.00000 0 0 0
25 0.00000 20.91858 0.50000 0 0 0
26 0.00000 21.78461 0.00000 0 0 0
27 0.00000 22.65064 0.50000 0 0 0
28 0.00000 23.51666 0.00000 0 0 0
29 0.00000 24.38269 0.50000 0 0 0
30 0.00000 25.24871 0.00000 0 0 0
31 0.00000 26.11474 0.50000 0 0 0
32 0.00000 26.98076 0.00000 0 0 0
33 0.00000 27.84679 0.50000 0 0 0
34 0.00000 28.71281 0.00000 0 0 0
35 0.00000 29.57884 0.50000 0 0 0
36 0.00000 30.44486 0.00000 0 0 0
37 0.00000 31.31089 0.50000 0 0 0
38 0.00000 32.17691 0.00000 0 0 0
39 0.00000 33.04294 0.50000 0 0 0
40 0.00000 33.90897 0.00000 0 0 0
41 0.00000 34.77499 0.50000 0 0 0
42 0.00000 35.64102 0.00000 0 0 0
43 0.00000 36.50704 0.50000 0 0 0
44 0.00000 37.37307 0.00000 0 0 0
45 0.00000 38.23909 0.50000 0 0 0
46 0.00000 39.10512 0.00000 0 0 0
47 0.00000 39.97114 0.50000 0 0 0
48 0.00000 40.83717 0.00000 0 0 0
49 0.00000 41.70319 0.50000 0 0 0
50 0.00000 42.56922 0.00000 0 0 0
51 0.00000 43.43524 0.50000 0 0 0
52 0.00000 44.30127 0.00000 0 0 0
53 0.00000 45.16730 0.50000 0 0 0
54 0.00000 46.03332 0.00000 0 0 0
55 0.00000 46.89935 0.50000 0 0 0
56 0.00000 47.76537 0.00000 0 0 0
57 0.00000 48.63140 0.50000 0 0 0
58 0.00000 49.49742 0.00000 0 0 0
59 0.00000 50.36345 0.50000 0 0 0
60 0.00000 51.22947 0.00000 0 0 0
61 0.00000 52.09550 0.50000 0 0 0
62 0.00000 52.96152 0.00000 0 0 0
63 0.00000 53.82755 0.50000 0 0 0
64 0.00000 54.69358 0.00000 0 0 0
65 0.00000 55.55960 0.50000 0 0 0
66 0.00000 56.42563 0.00000 0 0 0
67 0.00000 57.29165 0.50000 0 0 0
68 0.00000 58.15768 0.00000 0 0 0
69 0.00000 59.02370 0.50000 0 0 0
70 0.00000 59.88973 0.00000 0 0 0
71 0.00000 60.75575 0.50000 0 0 0
72 0.00000 61.62178 0.00000 0 0 0
73 0.00000 62.48780 0.50000 0 0 0
74 0.00000 63.35383 0.00000 0 0 0
75 0.00000 64.21985 0.50000 0 0 0
76 0.00000 65.08588 0.00000 0 0 0
77 0.00000 65.95191 0.50000 0 0 0
78 0.00000 66.81793 0.00000 0 0 0
79 0.00000 67.68396 0.50000 0 0 0
80 0.00000 68.54998 0.00000 0 0 0
81 0.00000 69.41601 0.50000 0 0 0
82 0.00000 70.28203 0.00000 0 0 0
83 0.00000 71.14806 0.50000 0 0 0
84 0.00000 72.01408 0.00000 0 0 0
85 0.00000 72.88011 0.50000 0 0 0
86 0.00000 73.74613 0.00000 0 0 0
87 0.00000 74.61216 0.50000 0 0 0
88 0.00000 75.47818 0.00000 0 0 0
89 0.00000 76.34421 0.50000 0 0 0
90 0.00000 77.21024 0.00000 0 0 0
91 0.00000 78.07626 0.50000 0 0 0
92 0.00000 78.94229 0.00000 0 0 0
93 0.00000 79.80831 0.50000 0 0 0
94 0.00000 80.67434 0.00000 0 0 0
95 0.00000 81.54036 0.50000 0 0 0
96 0.00000 82.40639 0.00000 0 0 0
97 0.00000 83.27241 0.50000 0 0 0
98 0.00000 84.13844 0.00000 0 0 0
99 0.00000 85.00446 0.50000 0 0 0
100 0.00000 85.87049 0.00000 0 0 0
101 0.00000 86.73651 0.50000 0 0 0
102 0.00000 87.60254 0.00000 0 0 0
103 0.00000 88.46857 0.50000 0 0 0
104 0.00000 89.33459 0.00000 0 0 0
105 0.00000 90.20062 0.50000 0 0 0
106 0.00000 91.06664 0.00000 0 0 0
107 0.00000 91.93267 0.50000 0 0 0
108 0.00000 92.79869 0.00000 0 0 0
109 0.00000 93.66472 0.50000 0 0 0
110 0.00000 94.53074 0.00000 0 0 0
111 0.00000 95.39677 0.50000 0 0 0
112 0.00000 96.26279 0.00000 0 0 0
113 0.00000 97.12882 0.50000 0 0 0
114 0.00000 97.99485 0.00000 0 0 0
115 0.00000 98.86087 0.50000 0 0 0
116 0.00000 99.72690 0.00000 0 0 0
117 0.00000 100.59292 0.50000 0 0 0
118 0.00000 101.45895 0.00000 0 0 0
119 0.00000 102.32497 0.50000 0 0 0
120 0.00000 103.19100 0.00000 0 0 0
121 0.00000 104.05702 0.50000 0 0 0
122 0.00000 104.92305 0.00000 0 0 0
123 0.00000 105.78907 0.50000 0 0 0
124 0.00000 106.65510 0.00000 0 0 0
125 0.00000 107.52112 0.50000 0 0 0
126 0.00000 108.38715 0.00000 0 0 0
127 0.00000 109.25318 0.50000 0 0 0
128 0.00000 110.11920 0.00000 0 0 0
129 0.00000 110.98523 0.50000 0 0 0
130 0.00000 111.85125 0.00000 0 0 0
131 0.00000 112.71728 0.50000 0 0 0
132 0.00000 113.58330 0.00000 0 0 0
133 0.00000 114.44933 0.50000 0 0 0
134 0.00000 115.31535 0.00000 0 0 0
135 0.00000 116.18138 0.50000 0 0 0
136 0.00000 117.04740 0.00000 0 0 0
137 0.00000 117.91343 0.50000 0 0 0
138 0.00000 118.77945 0.00000 0 0 0
139 0.00000 119.64548 0.50000 0 0 0
140 0.00000 120.51151 0.00000 0 0 0
141 0.00000 121.37753 0.50000 0 0 0
142 0.00000 122.24356 0.00000 0 0 0
143 0.00000 123.10958 0.50000 0 0 0
144 0.00000 123.97561 0.00000 0 0 0
145 0.00000 124.84163 0.50000 0 0 0
146 0.00000 125.70766 0.00000 0 0 0
147 0.00000 126.57368 0.50000 0 0 0
148 0.00000 127.43971 0.00000 0 0 0
149 0.00000 128.30573 0.50000 0 0 0
150 0.00000 129.17176 0.00000 0 0 0
151 0.00000 130.03779 0.50000 0 0 0
152 0.00000 130.90381 0.00000 0 0 0
153 0.00000 131.76984 0.50000 0 0 0
154 0.00000 132.63586 0.00000 0 0 0
155 0.00000 133.50189 0.50000 0 0 0
156 0.00000 134.36791 0.00000 0 0 0
157 0.00000 135.23394 0.50000 0 0 0
158 0.00000 136.09996 0.00000 0 0 0
159 0.00000 136.96599 0.50000 0 0 0
160 0.00000 137.83201 0.00000 0 0 0
161 0.00000 138.69804 0.50000 0 0 0
162 0.00000 139.56406 0.00000 0 0 0
163 0.00000 140.43009 0.50000 0 0 0
164 0.00000 141.29612 0.00000 0 0 0
165 0.00000 142.16214 0.50000 0 0 0
166 0.00000 143.02817 0.00000 0 0 0
167 0.00000 143.89419 0.50000 0 0 0
168 0.00000 144.76022 0.00000 0 0 0
169 0.00000 145.62624 0.50000 0 0 0
170 0.00000 146.49227 0.00000 0 0 0
171 0.00000 147.35829 0.50000 0 0 0
172 0.00000 148.22432 0.00000 0 0 0
173 0.00000 149.09034 0.50000 0 0 0
174 0.00000 149.95637 0.00000 0 0 0
175 0.00000 150.82239 0.50000 0 0 0
176 0.00000 151.68842 0.00000 0 0 0
177 0.00000 152.55445 0.50000 0 0 0
178 0.00000 153.42047 0.00000 0 0 0
179 0.00000 154.28650 0.50000 0 0 0
180 0.00000 155.15252 0.00000 0 0 0
181 0.00000 156.01855 0.50000 0 0 0
182 0.00000 156.88457 0.00000 0 0 0
183 0.00000 157.75060 0.50000 0 0 0
184 0.00000 158.61662 0.00000 0 0 0
185 0.00000 159.48265 0.50000 0 0 0
186 0.00000 160.34867 0.00000 0 0 0
187 0.00000 161.21470 0.50000 0 0 0
188 0.00000 162.08073 0.00000 0 0 0
189 0.00000 162.94675 0.50000 0 0 0
190 0.00000 163.81278 0.00000 0 0 0
191 0.00000 164.67880 0.50000 0 0 0
192 0.00000 165.54483 0.00000 0 0 0
193 0.00000 166.41085 0.50000 0 0 0
194 0.00000 167.27688 0.00000 0 0 0
195 0.00000 168.14290 0.50000 0 0 0
196 0.00000 169.00893 0.00000 0 0 0
197 0.00000 169.87495 0.50000 0 0 0
198 0.00000 170.74098 0.00000 0 0 0
199 0.00000 171.60700 0.50000 0 0 0
200 0.00000 172.47303 0.00000 0 0 0
201 0.00000 173.33906 0.50000 0 0 0
202 0.00000 174.20508 0.00000 0 0 0
203 0.00000 175.07111 0.50000 0 0 0
204 0.00000 175.93713 0.00000 0 0 0
205 0.00000 176.80316 0.50000 0 0 0
206 0.00000 177.66918 0.00000 0 0 0
207 0.00000 178.53521 0.50000 0 0 0
208 0.00000 179.40123 0.00000 0 0 0
209 0.00000 180.26726 0.50000 0 0 0
210 0.00000 181.13328 0.00000 0 0 0
211 0.00000 181.99931 0.50000 0 0 0
212 0.00000 182.86533 0.00000 0 0 0
213 0.00000 183.73136 0.50000 0 0 0
214 0.00000 184.59739 0.00000 0 0 0
215 0.00000 185.46341 0.50000 0 0 0
216 0.00000 186.32944 0.00000 0 0 0
217 0.00000 187.19546 0.50000 0 0 0
218 0.00000 188.06149 0.00000 0 0 0
219 0.00000 188.92751 0.50000 0 0 0
220 0.00000 189.79354 0.00000 0 0 0
221 0.00000 190.65956 0.50000 0 0 0
222 0.00000 191.52559 0.00000 0 0 0
223 0.00000 192.39161 0.50000 0 0 0
224 0.00000 193.25764 0.00000 0 0 0
225 0.00000 194.12367 0.50000 0 0 0
226 0.00000 194.98969 0.00000 0 0 0
227 0.00000 195.85572 0.50000 0 0 0
228 0.00000 196.72174 0.00000 0 0 0
229 0.00000 197.58777 0.50000 0 0 0
230 0.00000 198.45379 0.00000 0 0 0
231 0.00000 199.31982 0.50000 0 0 0
232 0.00000 200.18584 0.00000 0 0 0
233 0.00000 201.05187 0.50000 0 0 0
234 0.00000 201.91789 0.00000 0 0 0
235 0.00000 202.78392 0.50000 0 0 0
236 0.00000 203.64994 0.00000 0 0 0
237 0.00000 204.51597 0.50000 0 0 0
238 0.00000 205.38200 0.00000 0 0 0
239 0.00000 206.24802 0.50000 0 0 0
240 0.00000 207.11405 0.00000 0 0 0
241 0.00000 207.98007 0.50000 0 0 0
242 0.00000 208.84610 0.00000 0 0 0
243 0.00000 209.71212 0.50000 0 0 0
244 0.00000 210.57815 0.00000 0 0 0
245 0.00000 211.44417 0.50000 0 0 0
246 0.00000 212.31020 0.00000 0 0 0
247 0.00000 213.17622 0.50000 0 0 0
248 0.00000 214.04225 0.00000 0 0 0
249 0.00000 214.90827 0.50000 0 0 0
250 0.00000 215.77430 0.00000 0 0 0
251 0.00000 216.64033 0.50000 0 0 0
252 0.00000 217.50635 0.00000 0 0 0
253 0.00000 218.37238 0.50000 0 0 0
254 0.00000 219.23840 0.00000 0 0 0
255 0.00000 220.10443 0.50000 0 0 0
256 0.00000 220.97045 0.00000 0 0 0
257 0.00000 221.83648 0.50000 0 0 0
258 0.00000 222.70250 0.00000 0 0 0
259 0.00000 223.56853 0.50000 0 0 0
260 0.00000 224.43455 0.00000 0 0 0
261 0.00000 225.30058 0.50000 0 0 0
262 0.00000 226.16660 0.00000 0 0 0
263 0.00000 227.03263 0.50000 0 0 0
264 0.00000 227.89866 0.00000 0 0 0
265 0.00000 228.76468 0.50000 0 0 0
266 0.00000 229.63071 0.00000 0 0 0
267 0.00000 230.49673 0.50000 0 0 0
268 0.00000 231.36276 0.00000 0 0 0
269 0.00000 232.22878 0.50000 0 0 0
270 0.00000 233.09481 0.00000 0 0 0
271 0.00000 233.96083 0.50000 0 0 0
272 0.00000 234.82686 0.00000 0 0 0
273 0.00000 235.69288 0.50000 0 0 0
274 0.00000 236.55891 0.00000 0 0 0
275 0.00000 237.42494 0.50000 0 0 0
276 0.00000 238.29096 0.00000 0 0 0
277 0.00000 239.15699 0.50000 0 0 0
278 0.00000 240.02301 0.00000 0 0 0
279 0.00000 240.88904 0.50000 0 0 0
280 0.00000 241.75506 0.00000 0 0 0
281 0.00000 242.62109 0.50000 0 0 0
282 0.00000 243.48711 0.00000 0 0 0
283 0.00000 244.35314 0.50000 0 0 0
284 0.00000 245.21916 0.00000 0 0 0
285 0.00000 246.08519 0.50000 0 0 0
286 0.00000 246.95121 0.00000 0 0 0
287 0.00000 247.81724 0.50000 0 0 0
288 0.00000 248.68327 0.00000 0 0 0
289 0.00000 249.54929 0.50000 0 0 0
290 0.00000 250.41532 0.00000 0 0 0
291 0.00000 251.28134 0.50000 0 0 0
292 0.00000 252.14737 0.00000 0 0 0
293 0.00000 253.01339 0.50000 0 0 0
294 0.00000 253.87942 0.00000 0 0 0
295 0.00000 254.74544 0.50000 0 0 0
296 0.00000 255.61147 0.00000 0 0 0
297 0.00000 256.47749 0.50000 0 0 0
298 0.00000 257.34352 0.00000 0 0 0
299 0.00000 258.20954 0.50000 0 0 0
300 0.00000 259.07557 0.00000 0 0 0
ITEM: TIMESTEP
1000
ITEM: NUMBER OF ATOMS
300
ITEM: BOX BOUNDS pp pp pp
-1.0000000000000000e+03 1.0000000000000000e+03
-1.0000000000000000e+03 1.0000000000000000e+03
-1.0000000000000000e+03 1.0000000000000000e+03
ITEM: ATOMS id x y z ix iy iz
1 -0.49557 4.28928 -0.92096 0 0 0
163 -0.61664 139.55853 0.51815 0 0 0
164 -0.33906 140.48948 0.56567 0 0 0
165 0.00990 141.14124 -0.06632 0 0 0
171 -1.29748 146.53592 -0.05367 0 0 0
10 0.18748 8.26735 -0.64761 0 0 0
283 0.14615 243.67247 0.17861 0 0 0
162 0.03662 138.89208 0.10729 0 0 0
161 -0.38063 137.98320 -0.33553 0 0 0
160 -0.24782 136.97831 -0.48781 0 0 0
159 -0.37286 136.08130 -0.15434 0 0 0
158 0.07901 135.40637 0.41402 0 0 0
294 -1.49048 251.16394 -1.00355 0 0 0
153 0.68146 131.01712 0.20122 0 0 0
238 -0.06032 204.50699 -0.74800 0 0 0
156 0.91379 133.77212 0.11976 0 0 0
236 -0.28426 202.53526 -0.91670 0 0 0
94 0.54715 80.67808 0.22057 0 0 0
93 0.89950 79.68976 0.65699 0 0 0
157 0.79274 134.69729 0.36240 0 0 0
75 -1.20835 64.80922 -0.72110 0 0 0
74 -1.66079 64.07197 -1.26338 0 0 0
237 -0.22341 203.47100 -0.48750 0 0 0
92 1.05128 78.85466 0.17575 0 0 0
247 1.76351 212.08561 0.42109 0 0 0
64 0.25912 55.36627 -1.71777 0 0 0
65 0.26117 56.34222 -1.93618 0 0 0
248 1.83574 213.06790 0.70958 0 0 0
154 1.01428 131.89517 0.24483 0 0 0
242 1.46809 207.78647 -0.93695 0 0 0
91 1.01637 78.03349 0.68712 0 0 0
234 -0.30810 201.04936 -0.56966 0 0 0
66 0.11755 57.36995 -1.84685 0 0 0
67 0.01702 58.20771 -2.37715 0 0 0
68 -0.22726 59.16074 -2.27828 0 0 0
69 -0.66482 60.06205 -2.15073 0 0 0
70 -0.80946 60.93335 -1.76933 0 0 0
71 -1.43973 61.65808 -1.96499 0 0 0
2 -0.75602 5.12977 -1.38943 0 0 0
298 0.22120 254.02105 -2.06432 0 0 0
243 0.89603 208.67885 -0.76668 0 0 0
233 -0.09445 200.11965 -0.42101 0 0 0
81 0.65984 69.69460 -0.54805 0 0 0
80 0.17007 68.85895 -0.66511 0 0 0
279 0.47503 239.98458 -0.15544 0 0 0
280 -0.03182 240.84231 0.00485 0 0 0
48 -0.66116 41.83443 -0.04645 0 0 0
47 -1.02041 40.93455 -0.27211 0 0 0
46 -0.86317 40.01580 0.13993 0 0 0
295 -1.15123 252.05314 -1.02942 0 0 0
235 0.40197 201.83116 -0.72603 0 0 0
244 1.07887 209.58068 -0.51182 0 0 0
63 0.16453 54.48560 -1.30486 0 0 0
155 0.68561 132.83397 0.22553 0 0 0
275 0.92623 236.89405 0.27135 0 0 0
62 0.33632 53.53403 -0.95293 0 0 0
90 1.73932 77.24472 0.59804 0 0 0
281 -0.18436 241.75269 -0.07261 0 0 0
73 -1.56033 63.02352 -1.47375 0 0 0
72 -1.37939 62.08454 -1.03543 0 0 0
9 -0.12302 7.32913 -0.37627 0 0 0
89 1.89538 76.37501 0.19169 0 0 0
245 1.58693 210.47054 -0.34563 0 0 0
170 -1.06907 145.50470 -0.11889 0 0 0
14 0.47893 11.68763 0.24403 0 0 0
13 0.36665 11.12513 -0.52378 0 0 0
278 0.12842 239.16614 0.30179 0 0 0
276 1.20877 237.80111 0.13713 0 0 0
83 1.01303 71.40986 -0.06621 0 0 0
272 0.99142 233.98068 -0.18292 0 0 0
273 1.18744 234.93802 -0.34719 0 0 0
8 0.04097 6.36342 -0.22448 0 0 0
296 -1.01088 252.80552 -1.60281 0 0 0
12 0.02605 10.18790 -0.77196 0 0 0
282 0.04505 242.74470 0.10063 0 0 0
82 1.27042 70.49054 -0.50011 0 0 0
267 1.61303 229.61799 0.77263 0 0 0
44 0.34925 38.67239 0.60850 0 0 0
246 1.74319 211.45608 -0.38766 0 0 0
268 1.29100 230.50531 0.38751 0 0 0
43 0.21907 37.72821 0.55558 0 0 0
4 -1.86468 5.79100 -0.28166 0 0 0
42 0.25298 36.76242 0.30857 0 0 0
53 -1.61599 46.58633 -0.85688 0 0 0
173 -0.97175 148.36738 -0.16195 0 0 0
172 -1.03864 147.44604 -0.51295 0 0 0
261 1.80870 224.39065 0.63211 0 0 0
274 1.09789 235.98622 -0.18692 0 0 0
36 0.82937 31.13518 0.12765 0 0 0
300 1.23569 254.34052 -1.10517 0 0 0
49 -0.94419 42.87589 -0.21587 0 0 0
299 1.12817 254.53345 -2.03546 0 0 0
277 1.08831 238.75123 0.30142 0 0 0
3 -1.18795 5.94177 -0.98885 0 0 0
265 1.20289 227.82732 0.45173 0 0 0
231 0.13288 198.41348 -0.01441 0 0 0
174 -0.50248 149.18072 -0.51045 0 0 0
253 2.27967 217.23596 0.47608 0 0 0
175 -0.32662 150.14528 -0.30033 0 0 0
54 -1.05791 47.35482 -1.08361 0 0 0
52 -1.56013 45.55697 -0.95565 0 0 0
51 -1.58590 44.52338 -0.92807 0 0 0
23 -0.24624 19.80674 0.72953 0 0 0
297 -0.58481 253.58085 -1.92880 0 0 0
239 0.27509 205.40836 -0.53436 0 0 0
61 -0.29786 52.85504 -0.63546 0 0 0
34 0.81629 29.18540 -0.09005 0 0 0
176 -0.14196 151.07362 -0.37995 0 0 0
152 0.14332 130.15072 0.39918 0 0 0
241 1.18450 206.85498 -1.04571 0 0 0
240 1.04005 206.00158 -0.60310 0 0 0
11 0.06601 9.20202 -0.71971 0 0 0
35 0.80105 30.15528 0.02989 0 0 0
232 0.43385 199.40893 0.12295 0 0 0
230 1.05903 198.33951 0.08306 0 0 0
285 -1.51088 244.43794 0.95262 0 0 0
198 0.56868 171.06277 1.40996 0 0 0
197 0.91073 170.22154 1.19323 0 0 0
181 0.42899 155.22103 0.97045 0 0 0
5 -1.27336 6.41146 0.11869 0 0 0
6 -1.05622 6.75003 1.03200 0 0 0
7 -0.03902 6.72344 0.73908 0 0 0
287 -1.85689 246.26288 1.22142 0 0 0
286 -1.48159 245.42587 0.78013 0 0 0
196 0.82043 169.27373 1.15889 0 0 0
220 0.71887 189.97235 1.41706 0 0 0
225 0.98677 194.33134 1.49669 0 0 0
17 0.31587 14.36407 0.45619 0 0 0
22 -0.62639 18.97190 0.31851 0 0 0
169 -1.03220 144.71823 -0.63147 0 0 0
288 -1.45232 246.68528 0.45094 0 0 0
289 -1.39819 247.38521 -0.12742 0 0 0
195 0.74105 168.29659 0.83839 0 0 0
37 0.70008 32.08571 -0.03645 0 0 0
194 0.14856 167.51922 1.18463 0 0 0
193 0.17791 166.62152 1.71676 0 0 0
116 -0.08194 99.10812 0.60325 0 0 0
192 0.18231 165.60816 1.42112 0 0 0
117 -0.03252 100.12209 0.61129 0 0 0
191 0.30218 164.61088 1.23803 0 0 0
199 0.80092 171.96738 1.58705 0 0 0
188 0.23477 161.83646 0.58887 0 0 0
187 0.40949 160.91825 0.67960 0 0 0
186 0.68184 159.98796 0.26059 0 0 0
185 0.75564 158.95113 0.54593 0 0 0
184 0.40600 158.00710 0.60969 0 0 0
112 -1.85481 95.90460 1.65057 0 0 0
33 0.17131 28.39182 -0.23007 0 0 0
291 -0.81513 249.29570 0.04048 0 0 0
183 0.53061 157.00467 0.48044 0 0 0
182 0.43676 156.16612 0.88526 0 0 0
226 1.50273 194.88807 0.84357 0 0 0
38 0.70301 33.09057 0.30829 0 0 0
39 0.21047 33.86779 0.12689 0 0 0
40 0.31109 34.87120 0.05820 0 0 0
200 1.34546 172.75817 1.52381 0 0 0
290 -1.02606 248.35853 -0.19142 0 0 0
120 0.26330 103.11741 0.92027 0 0 0
189 0.15571 162.81611 0.51107 0 0 0
79 -0.45512 68.12957 -0.87409 0 0 0
118 0.19112 101.13164 0.75583 0 0 0
227 1.00905 195.56920 0.39842 0 0 0
78 -0.99968 67.30094 -0.96325 0 0 0
30 -0.15178 25.71692 0.43962 0 0 0
201 1.27247 173.60074 1.95380 0 0 0
202 0.80306 174.47316 1.77273 0 0 0
114 -0.78225 97.43509 1.39011 0 0 0
203 1.06771 175.46485 1.45231 0 0 0
115 -0.62361 98.26104 0.80244 0 0 0
284 -0.57408 244.16425 0.63399 0 0 0
204 1.23531 176.42396 1.30884 0 0 0
167 -0.32365 142.95598 -0.47932 0 0 0
29 0.44611 24.88213 0.62929 0 0 0
205 1.50082 177.27857 1.75441 0 0 0
206 0.81071 177.98178 1.70059 0 0 0
128 0.65258 110.33279 0.21789 0 0 0
207 1.01887 178.86950 1.26524 0 0 0
208 1.17192 179.91821 1.25941 0 0 0
28 0.42279 23.93394 0.65518 0 0 0
209 1.24687 180.85899 0.98934 0 0 0
210 1.19547 181.83158 1.11279 0 0 0
122 0.49219 105.15634 0.47180 0 0 0
266 1.24075 228.69416 1.01364 0 0 0
221 0.24222 190.78018 1.05022 0 0 0
264 1.54971 226.83020 0.51928 0 0 0
263 1.93296 225.95031 0.33771 0 0 0
262 1.32070 225.17119 0.31700 0 0 0
223 0.51779 192.66771 1.39426 0 0 0
222 0.57085 191.64825 1.44567 0 0 0
224 1.09277 193.45052 1.14506 0 0 0
134 1.18673 115.62758 1.05921 0 0 0
56 -0.11796 48.84194 -0.59128 0 0 0
168 -0.57117 143.91056 -0.72108 0 0 0
228 0.91867 196.47960 0.73852 0 0 0
113 -0.99516 96.42443 1.46568 0 0 0
55 -0.62461 48.01952 -0.49245 0 0 0
252 2.06812 216.36592 0.79444 0 0 0
131 1.34947 113.09040 0.32167 0 0 0
27 0.13512 23.09459 1.09734 0 0 0
132 0.83456 113.88366 0.41575 0 0 0
26 0.59441 22.24026 0.87123 0 0 0
119 0.28783 102.11932 0.93555 0 0 0
254 3.03507 217.97211 0.34619 0 0 0
215 0.58348 185.60793 2.01879 0 0 0
229 1.25391 197.44167 0.40562 0 0 0
214 0.31007 184.66381 2.23353 0 0 0
213 0.25856 183.97487 1.57238 0 0 0
212 0.28597 183.00096 1.80746 0 0 0
211 0.27761 182.27635 1.15715 0 0 0
95 0.23288 81.44021 0.67650 0 0 0
96 -0.39076 82.18187 1.13552 0 0 0
97 -0.46678 83.13553 1.09252 0 0 0
98 -0.42759 84.14205 1.08464 0 0 0
99 -0.55364 84.69963 0.31595 0 0 0
100 0.01734 85.50982 0.36944 0 0 0
101 -0.17621 86.41127 0.61697 0 0 0
102 -0.48461 87.28194 0.97722 0 0 0
103 -0.82484 88.19313 1.02974 0 0 0
104 -0.36023 89.01373 0.87621 0 0 0
105 -0.89825 89.86317 1.10858 0 0 0
106 -1.38541 90.75439 1.18371 0 0 0
107 -1.74134 91.71126 1.08104 0 0 0
108 -1.81929 92.61750 0.86557 0 0 0
109 -1.48724 93.47367 0.97934 0 0 0
110 -1.12660 94.30795 1.46868 0 0 0
111 -1.48677 95.05676 1.88030 0 0 0
151 0.25422 129.17027 0.27813 0 0 0
123 0.62304 106.19606 0.59251 0 0 0
150 0.29168 128.25637 -0.28824 0 0 0
124 0.72768 106.90623 1.23344 0 0 0
135 0.89712 116.58319 0.95206 0 0 0
166 0.16257 142.03626 -0.43279 0 0 0
137 1.59924 118.08638 1.83791 0 0 0
149 0.27762 127.37562 0.12479 0 0 0
138 1.57816 119.08964 1.85534 0 0 0
292 -1.63293 249.85244 0.29770 0 0 0
293 -1.79986 250.66114 -0.27325 0 0 0
148 0.32792 126.46304 0.65171 0 0 0
147 0.40748 125.71139 1.25394 0 0 0
125 0.49816 107.96279 1.46900 0 0 0
126 0.32874 108.72576 0.97116 0 0 0
127 0.64618 109.60816 0.84527 0 0 0
77 -1.25259 66.70636 -0.25200 0 0 0
129 1.04120 111.21205 0.11483 0 0 0
130 0.77926 112.17349 0.34960 0 0 0
57 -0.23216 49.73973 -0.30313 0 0 0
146 0.68048 124.75856 1.29503 0 0 0
145 0.77214 123.82195 1.20870 0 0 0
178 0.57501 152.37764 0.63587 0 0 0
32 0.14291 27.63672 0.31458 0 0 0
216 0.31280 186.68264 1.94499 0 0 0
219 0.75371 189.27601 2.02857 0 0 0
218 0.68383 188.33582 2.14998 0 0 0
139 1.47063 119.99745 1.66306 0 0 0
217 0.34851 187.62313 1.63253 0 0 0
141 0.44693 120.81850 0.44216 0 0 0
142 0.82949 121.62671 0.75563 0 0 0
143 0.36361 122.29134 0.15557 0 0 0
144 0.54897 123.15401 0.59980 0 0 0
177 -0.06647 151.76927 0.25529 0 0 0
190 0.23969 163.76011 0.72884 0 0 0
58 -0.15099 50.64037 0.04907 0 0 0
255 3.22055 218.89142 0.13531 0 0 0
179 0.39227 153.26853 1.16754 0 0 0
140 0.99030 120.16198 0.84396 0 0 0
50 -1.26862 43.62811 -0.70029 0 0 0
41 0.41619 35.78090 0.07263 0 0 0
256 2.94818 219.87531 0.50778 0 0 0
136 1.48765 117.37917 1.19819 0 0 0
76 -1.32255 65.78285 -0.74789 0 0 0
60 0.04352 52.17955 0.05432 0 0 0
269 1.23477 231.39049 -0.01821 0 0 0
270 0.60388 232.08368 0.16895 0 0 0
133 1.41441 114.61935 0.87502 0 0 0
249 1.96714 214.11006 0.63740 0 0 0
258 2.22254 221.52677 0.89132 0 0 0
20 -0.15647 17.02549 0.24172 0 0 0
21 -0.13353 18.00198 0.32065 0 0 0
250 2.19421 215.01965 0.25641 0 0 0
25 0.90298 21.30097 0.49506 0 0 0
180 0.26456 154.27146 1.23924 0 0 0
257 2.22335 220.52274 0.81626 0 0 0
251 1.50210 215.58204 0.62588 0 0 0
88 1.53021 75.51447 0.60340 0 0 0
259 2.28974 222.50072 0.82045 0 0 0
86 1.45586 73.68636 0.53515 0 0 0
31 0.11286 26.67225 0.36867 0 0 0
84 1.50285 72.17969 -0.37613 0 0 0
260 2.09438 223.48130 0.56927 0 0 0
19 -0.07494 16.04911 0.46494 0 0 0
87 1.06998 74.66490 0.56241 0 0 0
24 0.63382 20.25669 0.57890 0 0 0
15 0.69405 12.61247 0.41792 0 0 0
59 0.50605 51.34246 0.12212 0 0 0
121 0.42238 104.07754 0.60698 0 0 0
271 0.53345 232.97138 -0.14200 0 0 0
16 0.06040 13.35654 0.66177 0 0 0
85 1.78487 72.75138 0.41049 0 0 0
18 0.58814 15.36604 0.48381 0 0 0
45 -0.44200 39.22076 0.50583 0 0 0
ITEM: TIMESTEP
2000
ITEM: NUMBER OF ATOMS
300
ITEM: BOX BOUNDS pp pp pp
-1.0000000000000000e+03 1.0000000000000000e+03
-1.0000000000000000e+03 1.0000000000000000e+03
-1.0000000000000000e+03 1.0000000000000000e+03
ITEM: ATOMS id x y z ix iy iz
157 -1.12185 134.88385 -0.61034 0 0 0
153 -0.93191 131.18120 0.19982 0 0 0
164 -0.25154 141.42794 0.15101 0 0 0
77 0.13739 66.32406 -1.47961 0 0 0
270 2.09329 230.87127 -0.73226 0 0 0
179 -0.56464 154.44793 -0.93836 0 0 0
240 3.59886 206.36630 -0.63343 0 0 0
241 3.00228 207.12934 -0.90148 0 0 0
60 -0.30061 51.31827 -1.12877 0 0 0
274 1.42896 234.19590 -2.35336 0 0 0
58 -0.14247 49.47755 -0.88425 0 0 0
57 0.04470 48.52264 -0.81136 0 0 0
292 0.31400 249.13404 -1.69555 0 0 0
61 -0.84460 52.06139 -1.01105 0 0 0
129 -0.00328 110.58959 0.23966 0 0 0
289 -0.05031 246.43856 -1.04052 0 0 0
161 -0.91510 138.58434 0.00155 0 0 0
239 3.58938 205.42002 -0.89268 0 0 0
297 1.82769 252.64395 -1.76642 0 0 0
261 3.57214 223.69899 -0.34521 0 0 0
75 0.28436 64.85263 -0.38103 0 0 0
159 -1.13725 136.66804 -0.37589 0 0 0
158 -0.84560 135.74683 -0.26084 0 0 0
76 0.08529 65.34026 -1.28007 0 0 0
54 -0.85140 46.40932 -0.00180 0 0 0
64 -0.39918 54.60790 -1.33460 0 0 0
65 -0.50960 55.62094 -1.09698 0 0 0
293 0.34811 250.08880 -1.50911 0 0 0
281 -0.21572 239.61034 -1.79551 0 0 0
242 3.15806 208.08097 -1.04920 0 0 0
271 2.10343 231.85679 -0.98578 0 0 0
59 -0.40430 50.41453 -0.78833 0 0 0
66 -0.82137 56.57196 -0.68838 0 0 0
67 -0.71932 57.52246 -0.96135 0 0 0
68 -0.51623 58.53197 -0.82360 0 0 0
69 -0.09359 59.30210 -0.41095 0 0 0
70 -0.14255 60.28042 -0.44139 0 0 0
71 0.18825 61.10312 -0.16920 0 0 0
283 -0.22338 241.10831 -0.77417 0 0 0
298 1.46168 253.38134 -1.17447 0 0 0
243 3.76615 208.81973 -1.31230 0 0 0
127 0.29847 108.65648 0.20286 0 0 0
81 0.16134 69.94645 -0.56283 0 0 0
249 2.04193 213.50271 -0.85145 0 0 0
275 0.99850 234.94796 -2.04892 0 0 0
55 -0.45648 46.80758 -0.74591 0 0 0
279 -0.05152 237.70733 -1.39803 0 0 0
56 0.15636 47.50328 -0.67954 0 0 0
299 1.48696 254.17536 -0.59480 0 0 0
280 -0.24630 238.59956 -1.80218 0 0 0
247 2.60762 211.99726 -1.75938 0 0 0
244 3.43060 209.74512 -1.35199 0 0 0
63 -0.11779 53.70207 -1.64577 0 0 0
245 3.49973 210.62789 -1.73096 0 0 0
168 -1.88481 144.51059 -0.09374 0 0 0
62 -0.49832 52.86347 -1.42073 0 0 0
248 2.26980 212.91700 -1.62152 0 0 0
291 -0.15537 248.29054 -1.49002 0 0 0
122 -1.42779 104.61925 0.25510 0 0 0
165 -0.84021 142.15554 -0.21780 0 0 0
290 -0.13023 247.34779 -1.35902 0 0 0
277 1.29627 236.51007 -1.84630 0 0 0
80 -0.04975 68.95667 -0.46720 0 0 0
177 -0.71182 152.66039 -0.57676 0 0 0
294 0.81496 250.99576 -1.40844 0 0 0
78 -0.19678 67.16391 -1.07810 0 0 0
79 -0.21575 68.08637 -0.71157 0 0 0
178 -0.89703 153.59744 -0.79784 0 0 0
252 2.58311 216.22204 -0.51054 0 0 0
288 -0.46239 245.54822 -1.11761 0 0 0
296 2.32567 251.96110 -2.15418 0 0 0
287 -0.03388 244.74249 -0.67566 0 0 0
285 -0.37374 242.92791 -0.44921 0 0 0
286 0.07280 243.73609 -0.58912 0 0 0
154 -0.98339 132.04686 -0.21946 0 0 0
246 3.05665 211.34815 -2.35522 0 0 0
273 1.75154 233.30055 -2.00421 0 0 0
155 -0.82336 133.04347 -0.20455 0 0 0
284 -0.58825 241.98887 -0.83047 0 0 0
278 0.52448 237.04940 -1.92747 0 0 0
295 1.79270 251.32484 -1.52307 0 0 0
250 2.52928 214.35947 -0.48984 0 0 0
167 -1.28293 143.74495 -0.38997 0 0 0
282 -0.26814 240.18341 -1.03071 0 0 0
269 2.64589 230.01989 -0.60890 0 0 0
268 3.06103 229.13502 -0.22709 0 0 0
156 -0.71347 133.99257 -0.43103 0 0 0
272 1.73886 232.39371 -1.74480 0 0 0
276 1.73941 235.61534 -1.97923 0 0 0
251 2.78613 215.30288 -0.47464 0 0 0
267 3.44048 228.23255 -0.65562 0 0 0
17 0.00488 17.13185 0.08216 0 0 0
18 -0.37279 18.03181 0.02457 0 0 0
128 0.30191 109.62265 -0.10329 0 0 0
182 0.29908 157.10345 -0.54744 0 0 0
266 3.85138 227.37287 -0.27105 0 0 0
83 0.17647 71.86660 -0.02804 0 0 0
181 -0.16406 156.31173 -0.59598 0 0 0
123 -0.77340 105.41231 0.23446 0 0 0
253 2.85902 217.01296 -0.01849 0 0 0
233 1.60830 201.20080 0.37383 0 0 0
236 3.32538 203.22173 -0.20715 0 0 0
238 3.84607 204.67411 -0.32975 0 0 0
135 1.37393 115.70375 0.45204 0 0 0
180 -0.17774 155.36809 -0.76765 0 0 0
86 0.83530 74.40310 -0.64270 0 0 0
139 -0.07871 119.30141 -0.05667 0 0 0
141 -0.02658 121.19933 0.02589 0 0 0
93 0.18798 80.88125 0.08739 0 0 0
140 0.14739 120.26882 -0.29931 0 0 0
84 0.31212 72.81536 0.10690 0 0 0
260 3.22157 222.91703 0.12769 0 0 0
8 0.58747 10.40398 1.25999 0 0 0
198 0.30444 170.35294 1.01035 0 0 0
197 0.21327 169.38341 0.85496 0 0 0
44 -1.36386 38.83707 2.18803 0 0 0
5 1.66777 9.07096 1.94449 0 0 0
6 1.77004 9.55407 1.10242 0 0 0
7 1.44445 10.38207 0.75925 0 0 0
98 0.25119 85.31786 1.86472 0 0 0
101 1.05923 87.97740 1.90904 0 0 0
196 0.18002 168.47108 0.94387 0 0 0
220 -0.55473 189.54253 1.78992 0 0 0
225 0.04803 194.07864 1.19900 0 0 0
97 0.09475 84.37784 1.71378 0 0 0
22 0.32118 20.37155 1.25814 0 0 0
45 -2.02733 39.53224 2.12096 0 0 0
43 -1.35035 37.91864 2.42818 0 0 0
48 -0.09785 41.25899 1.52892 0 0 0
195 0.14595 167.45822 1.01666 0 0 0
257 3.67618 220.34846 0.83549 0 0 0
194 -0.19801 166.55925 1.25614 0 0 0
193 -0.50623 165.68652 1.10147 0 0 0
116 -0.36800 100.46836 1.35041 0 0 0
192 -0.78375 164.85755 0.61127 0 0 0
117 -0.87804 101.17867 0.94793 0 0 0
191 -0.77054 163.89017 0.68840 0 0 0
199 0.23475 171.38238 1.38033 0 0 0
188 -1.18819 161.40192 1.53845 0 0 0
187 -0.73880 160.57570 1.82371 0 0 0
186 -0.71223 159.72397 1.39226 0 0 0
185 -0.21942 158.90815 1.26370 0 0 0
184 -0.00488 158.31625 0.52627 0 0 0
112 0.04493 97.38730 1.46768 0 0 0
16 -0.21711 16.16530 0.02675 0 0 0
42 -0.90005 37.11370 2.17374 0 0 0
183 -0.25049 157.85235 -0.31427 0 0 0
50 0.28760 43.23576 1.22248 0 0 0
226 0.33557 195.02280 1.07352 0 0 0
38 -1.13722 33.65354 1.03216 0 0 0
39 -1.26636 34.74569 1.10112 0 0 0
40 -0.73326 35.22308 1.84686 0 0 0
200 0.10657 172.34822 1.27938 0 0 0
4 0.99830 8.38622 1.70285 0 0 0
120 -2.29356 103.36530 0.74502 0 0 0
189 -1.33342 162.33687 1.21629 0 0 0
256 3.66209 219.77078 0.01661 0 0 0
118 -1.30869 102.00650 0.52165 0 0 0
227 1.04787 195.58954 1.42009 0 0 0
15 -0.69387 15.39028 0.63829 0 0 0
30 0.23329 27.38071 0.77321 0 0 0
201 -0.08320 173.29477 1.35138 0 0 0
202 0.27347 174.19871 1.46314 0 0 0
114 -0.69810 98.93995 1.77424 0 0 0
203 -0.52132 174.79728 1.43164 0 0 0
115 -1.08202 99.80558 1.54186 0 0 0
208 0.22725 179.19588 1.57293 0 0 0
204 -0.59236 175.62411 0.91538 0 0 0
24 0.68817 22.20685 1.15114 0 0 0
29 -0.19787 26.53548 0.39559 0 0 0
205 -0.55281 176.60252 1.11648 0 0 0
206 -0.15477 177.56989 0.80148 0 0 0
255 3.35451 218.78671 -0.09716 0 0 0
207 0.36091 178.25610 1.28651 0 0 0
85 0.67873 73.44473 -0.53779 0 0 0
28 -0.21704 25.53388 0.70489 0 0 0
209 0.32085 180.19452 1.32701 0 0 0
210 0.08099 181.10986 1.20732 0 0 0
133 0.30942 114.17496 0.06496 0 0 0
235 2.29409 202.92466 -0.08282 0 0 0
221 -0.41247 190.47355 1.49272 0 0 0
263 3.09730 224.82956 0.52908 0 0 0
264 3.48968 225.65035 0.12631 0 0 0
72 -0.12719 62.02586 -0.00650 0 0 0
223 0.17346 192.14623 1.06496 0 0 0
222 -0.38172 191.35091 1.04989 0 0 0
224 0.33578 193.10199 1.27211 0 0 0
151 -1.07248 129.48786 0.60631 0 0 0
49 0.18420 42.20355 1.39705 0 0 0
19 -0.99059 18.70141 0.29994 0 0 0
228 1.41076 196.48848 1.17435 0 0 0
113 -0.66713 98.00998 1.73898 0 0 0
172 -1.29056 148.24314 0.92847 0 0 0
11 1.09766 12.47163 2.00764 0 0 0
262 3.83182 224.63020 -0.09690 0 0 0
27 -0.11368 24.69460 1.32090 0 0 0
46 -1.32601 40.15112 2.44643 0 0 0
26 0.03069 23.72827 1.46328 0 0 0
119 -1.99808 102.61730 0.15650 0 0 0
254 3.27200 217.86367 -0.04062 0 0 0
215 -0.75001 185.48120 1.95988 0 0 0
229 1.51959 197.41403 0.84793 0 0 0
214 -0.85043 184.64993 2.50734 0 0 0
213 -0.46379 183.73767 2.19601 0 0 0
212 -0.26362 182.99053 1.62742 0 0 0
211 -0.27858 182.04173 1.40367 0 0 0
95 -0.08251 82.52446 1.10333 0 0 0
3 0.43558 7.83739 2.32751 0 0 0
259 3.25480 222.16100 0.90029 0 0 0
174 -0.96557 150.16799 0.43165 0 0 0
237 4.14730 203.77072 -0.10665 0 0 0
150 -0.60802 128.79441 0.19879 0 0 0
88 0.65654 76.20267 0.11803 0 0 0
234 1.89694 202.04372 -0.07525 0 0 0
103 -0.11743 89.54493 1.69904 0 0 0
104 -0.12348 90.43603 1.33557 0 0 0
105 -0.14243 91.49873 1.56260 0 0 0
106 -0.41331 92.40654 1.22156 0 0 0
107 0.00881 93.31460 1.08173 0 0 0