ITEM: TIMESTEP
0
ITEM: NUMBER OF ATOMS
101
ITEM: BOX BOUNDS pp pp pp
-1.0000000000000000e+03 1.0000000000000000e+03
-1.0000000000000000e+03 1.0000000000000000e+03
-1.0000000000000000e+03 1.0000000000000000e+03
ITEM: ATOMS id x y z ix iy iz
1 0.00000 0.00000 0.00000 0 0 0
2 0.00000 0.00000 1.00000 0 0 0
3 0.00000 -0.50000 1.86603 0 0 0
4 0.00000 0.00000 2.73205 0 0 0
5 0.00000 -0.50000 3.59808 0 0 0
6 0.00000 0.00000 4.46410 0 0 0
7 0.00000 -0.50000 5.33013 0 0 0
8 0.00000 0.00000 6.19615 0 0 0
9 0.00000 -0.50000 7.06218 0 0 0
10 0.00000 0.00000 7.92820 0 0 0
11 0.00000 -0.50000 8.79423 0 0 0
12 0.93651 -0.75988 9.02963 0 0 0
13 1.87302 -1.10265 9.10356 0 0 0
14 2.80952 -1.21001 9.43736 0 0 0
15 3.74603 -1.55278 9.51129 0 0 0
16 4.68254 -1.66014 9.84510 0 0 0
17 5.61905 -2.00290 9.91902 0 0 0
18 6.55555 -2.11027 10.25283 0 0 0
19 7.49206 -2.45303 10.32675 0 0 0
20 8.42857 -2.56039 10.66056 0 0 0
21 9.36508 -2.90316 10.73449 0 0 0
22 -0.56123 -1.32280 8.70463 0 0 0
23 -1.12246 -1.99056 8.21565 0 0 0
24 -1.68370 -2.74792 8.54945 0 0 0
25 -2.24493 -3.41568 8.06047 0 0 0
26 -2.80616 -4.17304 8.39427 0 0 0
27 -3.36739 -4.84080 7.90528 0 0 0
28 -3.92862 -5.59816 8.23909 0 0 0
29 -4.48986 -6.26593 7.75010 0 0 0
30 -5.05109 -7.02329 8.08391 0 0 0
31 -5.61232 -7.69105 7.59492 0 0 0
32 -0.37528 0.08197 9.51567 0 0 0
33 -0.75055 0.22524 10.43145 0 0 0
34 -1.12583 1.08996 10.76525 0 0 0
35 -1.50110 1.23324 11.68103 0 0 0
36 -1.87638 2.09796 12.01483 0 0 0
37 -2.25165 2.24123 12.93061 0 0 0
38 -2.62693 3.10595 13.26441 0 0 0
39 -3.00220 3.24923 14.18019 0 0 0
40 -3.37748 4.11395 14.51399 0 0 0
41 -3.75276 4.25722 15.42977 0 0 0
42 -3.06875 4.00458 16.11410 0 0 0
43 -2.38475 3.44363 16.58043 0 0 0
44 -1.70074 3.56700 17.29940 0 0 0
45 -1.01674 3.00604 17.76573 0 0 0
46 -0.33273 3.12942 18.48470 0 0 0
47 0.35127 2.56846 18.95103 0 0 0
48 1.03527 2.69183 19.67000 0 0 0
49 1.71928 2.13088 20.13633 0 0 0
50 2.40328 2.25425 20.85530 0 0 0
51 3.08729 1.69329 21.32163 0 0 0
52 -4.56794 3.69040 15.54890 0 0 0
53 -5.38312 3.13995 15.36867 0 0 0
54 -6.19830 2.70864 15.75525 0 0 0
55 -7.01348 2.15819 15.57501 0 0 0
56 -7.82867 1.72688 15.96160 0 0 0
57 -8.64385 1.17643 15.78136 0 0 0
58 -9.45903 0.74512 16.16794 0 0 0
59 -10.27421 0.19467 15.98771 0 0 0
60 -11.08939 -0.23665 16.37429 0 0 0
61 -11.90457 -0.78709 16.19405 0 0 0
62 -3.99739 5.22016 15.54337 0 0 0
63 -4.24202 5.99729 16.12323 0 0 0
64 -4.48665 6.88802 15.74015 0 0 0
65 -4.73128 7.66514 16.32000 0 0 0
66 -4.97591 8.55587 15.93692 0 0 0
67 -5.22054 9.33300 16.51677 0 0 0
68 -5.46517 10.22373 16.13369 0 0 0
69 -5.70981 11.00086 16.71355 0 0 0
70 -5.95444 11.89159 16.33046 0 0 0
71 -6.19907 12.66871 16.91032 0 0 0
72 -5.92067 13.51907 16.46379 0 0 0
73 -5.64228 14.47877 16.50226 0 0 0
74 -5.36388 14.99193 15.69038 0 0 0
75 -5.08549 15.95163 15.72885 0 0 0
76 -4.80709 16.46479 14.91696 0 0 0
77 -4.52870 17.42449 14.95543 0 0 0
78 -4.25030 17.93765 14.14355 0 0 0
79 -3.97191 18.89735 14.18202 0 0 0
80 -3.69352 19.41052 13.37013 0 0 0
81 -3.41512 20.37021 13.40861 0 0 0
82 -5.73321 12.58745 17.79144 0 0 0
83 -5.26736 12.07651 18.51388 0 0 0
84 -4.80150 12.44669 19.31759 0 0 0
85 -4.33564 11.93576 20.04003 0 0 0
86 -3.86979 12.30594 20.84373 0 0 0
87 -3.40393 11.79500 21.56617 0 0 0
88 -2.93808 12.16519 22.36988 0 0 0
89 -2.47222 11.65425 23.09232 0 0 0
90 -2.00636 12.02443 23.89603 0 0 0
91 -1.54051 11.51349 24.61847 0 0 0
92 -7.18830 12.67785 17.05641 0 0 0
93 -8.17753 12.61272 17.18749 0 0 0
94 -9.16676 12.69368 17.30944 0 0 0
95 -10.15598 12.62854 17.44052 0 0 0
96 -11.14521 12.70950 17.56247 0 0 0
97 -12.13444 12.64437 17.69356 0 0 0
98 -13.12367 12.72533 17.81550 0 0 0
99 -14.11290 12.66020 17.94659 0 0 0
100 -15.10213 12.74115 18.06854 0 0 0
101 -16.09136 12.67602 18.19962 0 0 0
ITEM: TIMESTEP
1000
ITEM: NUMBER OF ATOMS
101
ITEM: BOX BOUNDS pp pp pp
-1.0000000000000000e+03 1.0000000000000000e+03
-1.0000000000000000e+03 1.0000000000000000e+03
-1.0000000000000000e+03 1.0000000000000000e+03
ITEM: ATOMS id x y z ix iy iz
1 2.13522 -0.15791 3.31851 0 0 0
2 1.18081 -0.23941 3.44766 0 0 0
3 0.49234 -0.59353 3.97955 0 0 0
4 0.28475 -1.18347 4.79671 0 0 0
5 -0.25641 -1.96378 5.03646 0 0 0
6 -0.61627 -2.27675 5.91516 0 0 0
7 -0.52852 -2.35068 6.86961 0 0 0
8 -0.09522 -1.82091 7.61965 0 0 0
9 -0.62220 -2.36018 8.26187 0 0 0
10 0.15373 -1.81656 8.64427 0 0 0
11 -0.06743 -1.24937 9.44117 0 0 0
12 0.20664 -1.67615 10.27098 0 0 0
13 1.18835 -1.38985 10.45229 0 0 0
14 1.66708 -1.09134 11.19690 0 0 0
15 2.57529 -1.62319 11.16851 0 0 0
16 2.59034 -2.55606 10.71451 0 0 0
17 3.20455 -2.72828 9.90262 0 0 0
18 3.53123 -3.06962 9.12485 0 0 0
19 4.10648 -2.23272 9.15482 0 0 0
20 4.86422 -2.58323 8.73143 0 0 0
21 5.00336 -3.18931 7.94106 0 0 0
22 -0.86294 -1.68465 9.49587 0 0 0
23 -1.38919 -2.20555 8.87058 0 0 0
24 -1.92261 -2.46339 8.17893 0 0 0
25 -2.47022 -2.30771 7.36237 0 0 0
26 -3.28500 -2.59486 6.92977 0 0 0
27 -3.74905 -3.29746 6.50730 0 0 0
28 -4.34004 -3.97479 6.16360 0 0 0
29 -4.66816 -4.47864 6.89759 0 0 0
30 -4.05237 -4.85293 7.55645 0 0 0
31 -3.15725 -4.93160 7.95332 0 0 0
32 0.06051 -0.41381 10.08617 0 0 0
33 -0.30218 0.38194 10.55441 0 0 0
34 -1.23620 0.53419 10.75088 0 0 0
35 -1.68234 1.05019 11.48083 0 0 0
36 -1.58198 1.67351 12.21640 0 0 0
37 -2.43306 1.73340 12.76862 0 0 0
38 -2.99527 2.40987 13.09432 0 0 0
39 -3.35964 3.32080 12.88275 0 0 0
40 -3.55660 4.03452 13.50680 0 0 0
41 -3.63526 4.62527 14.26148 0 0 0
42 -3.22451 4.11738 14.88565 0 0 0
43 -3.42418 3.15013 14.96671 0 0 0
44 -3.07321 3.32971 15.88951 0 0 0
45 -2.69927 3.72060 16.68562 0 0 0
46 -2.88144 3.55020 17.71393 0 0 0
47 -2.70743 3.58601 18.63579 0 0 0
48 -2.15982 2.85577 19.01941 0 0 0
49 -1.40694 2.95422 19.63958 0 0 0
50 -1.37178 3.83317 19.80483 0 0 0
51 -1.22773 4.72197 19.43399 0 0 0
52 -4.17017 3.89645 14.51888 0 0 0
53 -5.10301 3.83653 14.75986 0 0 0
54 -5.81467 4.02593 15.47326 0 0 0
55 -6.14168 4.48393 16.29379 0 0 0
56 -6.67231 4.67489 17.09278 0 0 0
57 -7.26627 4.69712 16.32638 0 0 0
58 -8.04820 4.39092 16.97104 0 0 0
59 -8.50004 5.19363 17.21605 0 0 0
60 -8.44830 5.56930 18.14579 0 0 0
61 -9.16860 5.06348 18.47269 0 0 0
62 -3.61528 5.53012 14.73046 0 0 0
63 -3.55477 6.27352 15.39302 0 0 0
64 -3.82966 6.75617 16.15117 0 0 0
65 -4.68902 7.22681 16.06519 0 0 0
66 -4.66799 7.85026 15.29077 0 0 0
67 -4.57866 8.81638 15.22319 0 0 0
68 -4.12563 9.54252 15.73832 0 0 0
69 -3.88404 10.47139 16.05816 0 0 0
70 -4.20583 11.11923 16.70467 0 0 0
71 -4.83746 11.78962 17.02153 0 0 0
72 -4.14924 12.42052 16.58265 0 0 0
73 -4.08688 13.31940 16.39608 0 0 0
74 -4.47326 13.10586 15.55822 0 0 0
75 -4.53110 13.60436 14.73075 0 0 0
76 -3.94862 14.33680 14.41108 0 0 0
77 -4.10311 15.32735 14.36427 0 0 0
78 -3.88160 15.98932 15.01397 0 0 0
79 -4.03696 15.71769 15.96395 0 0 0
80 -3.75176 15.75886 16.86512 0 0 0
81 -4.13360 15.75750 17.74029 0 0 0
82 -5.64027 12.22604 17.30019 0 0 0
83 -5.77737 12.68660 18.15101 0 0 0
84 -6.32501 12.60106 18.94132 0 0 0
85 -6.03545 13.10496 19.72530 0 0 0
86 -5.24239 12.69789 19.94602 0 0 0
87 -4.48190 12.16300 20.15394 0 0 0
88 -4.59692 11.52842 20.91246 0 0 0
89 -4.33734 11.09579 21.78559 0 0 0
90 -4.22723 10.58796 22.56992 0 0 0
91 -3.45215 10.72621 23.22797 0 0 0
92 -5.33445 11.03632 17.43442 0 0 0
93 -6.27492 11.32191 17.15617 0 0 0
94 -6.84306 10.97866 16.46521 0 0 0
95 -7.55813 11.34200 15.97167 0 0 0
96 -7.86343 12.25955 16.26728 0 0 0
97 -8.63540 12.66920 16.64693 0 0 0
98 -9.35955 12.50157 17.27601 0 0 0
99 -10.26818 12.03707 17.11538 0 0 0
100 -10.94769 12.18658 16.42291 0 0 0
101 -11.59922 11.93208 15.69441 0 0 0
ITEM: TIMESTEP
2000
ITEM: NUMBER OF ATOMS
101
ITEM: BOX BOUNDS pp pp pp
-1.0000000000000000e+03 1.0000000000000000e+03
-1.0000000000000000e+03 1.0000000000000000e+03
-1.0000000000000000e+03 1.0000000000000000e+03
ITEM: ATOMS id x y z ix iy iz
1 -0.43208 -3.67727 3.99006 0 0 0
2 -0.81965 -3.38835 4.97042 0 0 0
3 -0.58278 -2.96800 5.91406 0 0 0
4 -0.91650 -2.07678 6.05845 0 0 0
5 -0.11505 -1.44374 6.29067 0 0 0
6 0.21735 -0.57797 5.88237 0 0 0
7 0.16083 0.22826 6.36457 0 0 0
8 -0.40391 0.39389 7.15548 0 0 0
9 -1.10601 1.06452 7.44859 0 0 0
10 -1.12754 0.60495 8.31230 0 0 0
11 -1.18212 0.04563 9.13852 0 0 0
12 -0.57267 -0.41053 9.79170 0 0 0
13 -0.15140 -0.34730 10.64442 0 0 0
14 0.25528 0.44692 11.03298 0 0 0
15 0.72613 0.34092 11.97082 0 0 0
16 1.55695 0.10697 11.50599 0 0 0
17 2.00389 -0.56383 10.89975 0 0 0
18 2.39217 -1.47738 10.75214 0 0 0
19 3.04073 -1.73515 10.07284 0 0 0
20 3.05406 -2.70130 10.01490 0 0 0
21 3.65807 -3.25921 9.52152 0 0 0
22 -1.97294 -0.48087 8.91971 0 0 0
23 -1.92588 -0.63960 7.94329 0 0 0
24 -1.74353 -0.69031 6.94544 0 0 0
25 -1.47216 -0.53039 6.04219 0 0 0
26 -2.13348 -0.98071 5.46259 0 0 0
27 -2.56159 -1.79634 5.90155 0 0 0
28 -2.77737 -2.67771 5.45619 0 0 0
29 -3.04215 -2.88141 6.36013 0 0 0
30 -2.77288 -3.37082 7.18219 0 0 0
31 -2.43121 -4.35720 7.20988 0 0 0
32 -0.88375 0.80165 9.71960 0 0 0
33 -1.58501 1.18845 10.34370 0 0 0
34 -1.29202 1.82079 11.05062 0 0 0
35 -1.07003 2.22050 11.96885 0 0 0
36 -1.78087 2.33704 12.58519 0 0 0
37 -2.19712 3.08222 12.98397 0 0 0
38 -2.96951 3.11072 13.66416 0 0 0
39 -3.05751 3.93991 14.21270 0 0 0
40 -3.12888 4.21750 15.19203 0 0 0
41 -3.50077 5.14911 15.66462 0 0 0
42 -2.63871 5.00651 16.04285 0 0 0
43 -1.78606 4.48354 16.23608 0 0 0
44 -1.14027 4.48020 15.41809 0 0 0
45 -1.11545 5.39939 15.71642 0 0 0
46 -0.97141 5.74358 16.58927 0 0 0
47 -1.84903 5.38747 17.00352 0 0 0
48 -1.61937 5.79497 17.79886 0 0 0
49 -1.96492 5.66045 18.70592 0 0 0
50 -2.70572 5.25359 19.14686 0 0 0
51 -2.19264 4.44147 19.44006 0 0 0
52 -4.39561 5.49195 15.97558 0 0 0
53 -5.41228 5.33539 15.83568 0 0 0
54 -6.28938 5.05688 16.25226 0 0 0
55 -6.75983 4.26132 16.16461 0 0 0
56 -6.96734 3.41446 15.75737 0 0 0
57 -7.78026 3.65471 16.20902 0 0 0
58 -7.58639 3.98591 17.10793 0 0 0
59 -8.14972 4.68663 17.57133 0 0 0
60 -8.81013 5.43457 17.49425 0 0 0
61 -8.35229 5.63570 18.38630 0 0 0
62 -3.36004 6.14417 15.71692 0 0 0
63 -3.11424 7.04055 16.10495 0 0 0
64 -3.78810 7.72825 15.90297 0 0 0
65 -3.66331 8.14107 15.03808 0 0 0
66 -3.30784 8.99115 14.56136 0 0 0
67 -4.26920 9.13672 14.49010 0 0 0
68 -5.14638 9.53792 14.44606 0 0 0
69 -5.37293 10.19711 15.18733 0 0 0
70 -4.65982 10.88089 15.41691 0 0 0
71 -4.39762 11.78400 15.25034 0 0 0
72 -4.19460 12.84373 15.22508 0 0 0
73 -3.39717 13.36708 15.32175 0 0 0
74 -2.73923 14.16914 15.33843 0 0 0
75 -3.33017 14.81049 15.03251 0 0 0
76 -3.34855 14.39740 14.14393 0 0 0
77 -3.19502 15.39512 14.11678 0 0 0
78 -3.22504 15.96438 14.82841 0 0 0
79 -3.83421 15.61687 15.51539 0 0 0
80 -2.82105 15.56656 15.80629 0 0 0
81 -2.45902 15.94308 16.64028 0 0 0
82 -3.57926 11.22582 15.46245 0 0 0
83 -2.98318 11.38896 16.27262 0 0 0
84 -2.50271 11.82356 17.04024 0 0 0
85 -2.67721 11.79025 17.98504 0 0 0
86 -3.12933 11.99250 18.79232 0 0 0
87 -3.27455 12.19513 19.73821 0 0 0
88 -3.99264 12.30345 20.39555 0 0 0
89 -4.71142 12.12314 21.09172 0 0 0
90 -4.98163 11.79172 21.96313 0 0 0
91 -4.58920 10.80866 21.99754 0 0 0
92 -4.50987 12.13684 16.14503 0 0 0
93 -4.62967 13.10609 16.25953 0 0 0
94 -5.60051 13.08800 16.45275 0 0 0
95 -6.54216 13.35756 16.28070 0 0 0
96 -7.25340 13.13596 15.61306 0 0 0
97 -7.64696 12.82084 14.76871 0 0 0
98 -8.37767 13.04195 15.30304 0 0 0
99 -9.31592 12.75773 15.57119 0 0 0
100 -9.67361 12.42658 16.47007 0 0 0
101 -9.34423 11.46493 17.00059 0 0 0
ITEM: TIMESTEP
3000
ITEM: NUMBER OF ATOMS
101
ITEM: BOX BOUNDS pp pp pp
-1.0000000000000000e+03 1.0000000000000000e+03
-1.0000000000000000e+03 1.0000000000000000e+03
-1.0000000000000000e+03 1.0000000000000000e+03
ITEM: ATOMS id x y z ix iy iz
1 -2.16626 -3.99264 4.20320 0 0 0
2 -1.87663 -3.23502 4.80393 0 0 0
3 -1.85182 -2.72619 5.61740 0 0 0
4 -1.12399 -2.05965 5.89848 0 0 0
5 -1.51869 -1.46078 6.53540 0 0 0
6 -1.34764 -1.53039 7.50813 0 0 0
7 -2.05611 -0.88490 7.56749 0 0 0
8 -2.44351 -0.24218 8.17289 0 0 0
9 -2.32125 -0.71529 8.99655 0 0 0
10 -1.41169 -0.44345 9.19837 0 0 0
11 -1.11303 -0.15495 10.08698 0 0 0
12 -0.18742 -0.37045 10.07679 0 0 0
13 0.29459 -0.54744 9.16640 0 0 0
14 0.70997 -1.25621 8.59616 0 0 0
15 0.94906 -2.18957 8.66821 0 0 0
16 0.40945 -2.65899 9.37048 0 0 0
17 1.07318 -3.38382 9.25437 0 0 0
18 1.30936 -3.95171 8.45171 0 0 0
19 1.22590 -4.73628 9.06801 0 0 0
20 1.21585 -5.43020 9.80837 0 0 0
21 1.79419 -6.22617 9.74095 0 0 0
22 -2.07304 -0.02408 10.19337 0 0 0
23 -2.59451 0.72213 9.90063 0 0 0
24 -3.13420 0.50739 10.65115 0 0 0
25 -3.72080 -0.23733 10.26179 0 0 0
26 -4.03287 -1.14640 10.40203 0 0 0
27 -3.71449 -1.63572 9.65910 0 0 0
28 -3.27584 -1.89593 8.85618 0 0 0
29 -2.89755 -2.74541 9.19753 0 0 0
30 -3.86681 -2.82380 9.12330 0 0 0
31 -4.11088 -3.54148 8.48397 0 0 0
32 -1.42750 0.19267 10.96940 0 0 0
33 -1.51812 0.76105 11.68810 0 0 0
34 -2.03348 1.52298 12.08995 0 0 0
35 -2.35490 2.20554 12.76226 0 0 0
36 -2.23986 3.17948 12.84220 0 0 0
37 -2.93861 3.48047 13.58977 0 0 0
38 -2.74963 4.31312 14.01118 0 0 0
39 -2.93221 4.75727 13.20304 0 0 0
40 -2.66016 5.71418 13.40150 0 0 0
41 -2.50702 6.39294 14.26259 0 0 0
42 -1.66909 6.09502 14.54665 0 0 0
43 -1.36358 5.26512 14.10540 0 0 0
44 -1.33144 4.46706 13.50230 0 0 0
45 -0.59046 3.92072 13.75785 0 0 0
46 -0.59306 3.30924 14.45007 0 0 0
47 -1.29058 3.52979 15.11090 0 0 0
48 -1.52154 3.83205 16.05287 0 0 0
49 -1.32427 4.74673 16.31874 0 0 0
50 -1.59815 5.39301 17.07747 0 0 0
51 -0.68864 5.21305 17.40607 0 0 0
52 -2.50576 7.33628 14.46483 0 0 0
53 -2.94974 7.96885 14.96996 0 0 0
54 -3.78715 7.51784 15.07311 0 0 0
55 -4.34786 7.00933 15.67218 0 0 0
56 -5.30984 7.05004 15.27386 0 0 0
57 -6.22347 7.28330 15.78761 0 0 0
58 -6.32649 7.61338 16.68107 0 0 0
59 -7.03827 7.62979 17.36669 0 0 0
60 -7.22192 6.77762 16.86077 0 0 0
61 -8.14733 6.42677 16.70627 0 0 0
62 -3.17367 6.29006 14.87504 0 0 0
63 -3.26190 5.83154 15.78326 0 0 0
64 -3.77947 6.33733 16.41170 0 0 0
65 -3.71326 7.04799 16.99946 0 0 0
66 -3.38654 7.94506 16.92018 0 0 0
67 -3.07124 8.31113 17.77139 0 0 0
68 -2.47862 9.07197 17.66923 0 0 0
69 -2.84300 9.44443 16.83569 0 0 0
70 -3.78276 9.52155 16.49467 0 0 0
71 -4.10186 10.42177 16.32554 0 0 0
72 -3.53790 11.03007 15.81435 0 0 0
73 -3.37171 11.88225 15.36135 0 0 0
74 -3.07899 12.12440 14.38494 0 0 0
75 -2.75806 12.86801 13.85134 0 0 0
76 -2.21633 13.66458 13.66637 0 0 0
77 -2.93619 14.31032 13.84205 0 0 0
78 -3.22065 15.16039 14.17610 0 0 0
79 -3.23175 15.79256 14.88386 0 0 0
80 -3.79701 16.62041 14.86041 0 0 0
81 -4.79201 16.70813 14.96196 0 0 0
82 -3.68853 10.55244 17.27670 0 0 0
83 -3.20687 10.98679 17.99719 0 0 0
84 -2.70366 11.41914 18.71278 0 0 0
85 -2.97164 12.20667 19.21598 0 0 0
86 -2.52200 11.68318 19.99905 0 0 0
87 -1.95424 12.50514 20.21518 0 0 0
88 -1.20225 13.12558 19.90833 0 0 0
89 -1.02988 12.76966 19.05768 0 0 0
90 -0.90557 12.08284 18.33173 0 0 0
91 -0.39198 11.41795 17.81824 0 0 0
92 -4.99902 10.95022 16.54166 0 0 0
93 -5.75848 11.48909 16.44446 0 0 0
94 -6.08366 12.44782 16.62553 0 0 0
95 -6.98819 12.30204 17.07790 0 0 0
96 -6.64332 13.15756 17.47753 0 0 0
97 -7.04777 13.79438 16.81000 0 0 0
98 -7.71528 14.41221 16.45091 0 0 0
99 -8.52102 14.42552 15.94926 0 0 0
100 -9.02143 13.82432 16.62515 0 0 0
101 -9.81098 13.34419 16.30180 0 0 0
ITEM: TIMESTEP
4000
ITEM: NUMBER OF ATOMS
101
ITEM: BOX BOUNDS pp pp pp
-1.0000000000000000e+03 1.0000000000000000e+03
-1.0000000000000000e+03 1.0000000000000000e+03
-1.0000000000000000e+03 1.0000000000000000e+03
ITEM: ATOMS id x y z ix iy iz
1 1.24979 -2.01380 6.09900 0 0 0
2 0.69741 -2.53729 5.33701 0 0 0
3 0.04838 -1.85759 5.61750 0 0 0
4 -0.01938 -2.21629 6.58451 0 0 0
5 0.43685 -1.52734 7.06508 0 0 0
6 0.37386 -0.60952 7.22372 0 0 0
7 -0.51269 -0.87865 7.47706 0 0 0
8 -1.14044 -1.01966 8.30557 0 0 0
9 -2.10027 -0.95905 8.13029 0 0 0
10 -2.26966 -0.60921 9.02480 0 0 0
11 -1.97085 -0.19113 9.80030 0 0 0
12 -1.08372 0.07511 9.33073 0 0 0
13 -0.52053 -0.28959 8.65758 0 0 0
14 0.39704 -0.26347 9.07380 0 0 0
15 1.34365 -0.41059 8.92835 0 0 0
16 1.94671 -1.15395 8.68036 0 0 0
17 2.21084 -2.03391 8.09903 0 0 0
18 3.15298 -2.11685 7.86991 0 0 0
19 3.02349 -2.60374 6.98555 0 0 0
20 3.99088 -2.79046 6.98092 0 0 0
21 4.39273 -1.91624 6.79867 0 0 0
22 -2.86731 -0.31625 10.17782 0 0 0
23 -3.42859 0.23339 9.67318 0 0 0
24 -4.30505 0.23733 9.09935 0 0 0
25 -4.86246 -0.30399 8.47434 0 0 0
26 -5.14707 -1.19607 8.78026 0 0 0
27 -6.05676 -0.94530 9.11073 0 0 0
28 -6.11789 -1.16697 10.06811 0 0 0
29 -6.40120 -0.84918 10.94985 0 0 0
30 -5.76782 -1.53010 11.24442 0 0 0
31 -5.19847 -2.05893 10.69002 0 0 0
32 -2.06282 0.74812 9.55715 0 0 0
33 -1.98840 1.55412 10.13995 0 0 0
34 -2.34219 2.42097 10.41479 0 0 0
35 -1.56272 3.13464 10.36717 0 0 0
36 -1.56494 3.54475 11.29787 0 0 0
37 -1.85184 4.12731 12.05961 0 0 0
38 -1.56056 4.77599 12.75324 0 0 0
39 -1.56319 5.66058 13.22004 0 0 0
40 -1.66934 6.14996 14.24371 0 0 0
41 -2.58719 6.29264 14.50381 0 0 0
42 -3.18639 5.91513 13.70798 0 0 0
43 -4.00181 5.40978 13.48544 0 0 0
44 -3.48275 5.02153 14.30824 0 0 0
45 -2.95464 4.26451 14.17263 0 0 0
46 -2.32064 3.55600 14.01987 0 0 0
47 -1.39948 3.77457 14.04912 0 0 0
48 -1.28356 2.81813 14.19545 0 0 0
49 -0.84255 2.36791 14.96928 0 0 0
50 0.02283 1.84410 14.76828 0 0 0
51 0.31298 2.34194 15.55313 0 0 0
52 -3.27470 6.42469 15.25801 0 0 0
53 -3.53171 5.70669 15.92125 0 0 0
54 -3.72469 5.72311 16.87449 0 0 0
55 -4.54010 5.37583 16.56851 0 0 0
56 -4.59687 5.22831 15.60194 0 0 0
57 -4.45629 5.34717 14.68278 0 0 0
58 -5.24800 5.96489 14.72370 0 0 0
59 -4.75457 6.81459 14.71898 0 0 0
60 -4.75903 7.73429 14.26881 0 0 0
61 -5.25699 8.36811 14.92077 0 0 0
62 -2.32841 7.05210 15.17697 0 0 0
63 -1.70682 6.75180 15.94117 0 0 0
64 -2.12763 7.49635 16.39032 0 0 0
65 -1.44603 8.11858 16.07534 0 0 0
66 -1.88505 8.49341 16.83785 0 0 0
67 -2.76554 8.75056 16.50312 0 0 0
68 -3.56232 9.39066 16.46669 0 0 0
69 -4.07025 9.95569 15.88796 0 0 0
70 -4.59265 10.38110 15.14482 0 0 0
71 -4.86220 11.25591 14.78548 0 0 0
72 -4.78192 11.44570 13.76543 0 0 0
73 -5.39047 11.66829 13.08811 0 0 0
74 -6.24423 12.07278 13.07474 0 0 0
75 -5.87397 12.92268 12.72811 0 0 0
76 -5.37400 13.77752 12.57488 0 0 0
77 -4.76749 14.19391 13.25379 0 0 0
78 -4.67423 14.85839 14.08811 0 0 0
79 -4.38927 14.01644 14.50255 0 0 0
80 -3.39503 13.85270 14.33391 0 0 0
81 -2.96393 12.98236 14.26834 0 0 0
82 -4.44991 11.90500 15.33576 0 0 0
83 -4.60403 12.67065 15.93654 0 0 0
84 -3.95793 12.51058 16.61694 0 0 0
85 -4.16048 12.53298 17.60813 0 0 0
86 -3.39128 12.14374 18.06902 0 0 0
87 -3.03135 11.27527 18.36133 0 0 0
88 -2.21529 10.78578 18.42330 0 0 0
89 -1.31800 10.73567 18.80371 0 0 0
90 -1.00164 11.48247 19.30298 0 0 0
91 -1.28985 11.69188 20.30862 0 0 0
92 -5.58641 11.76962 15.21656 0 0 0
93 -5.26252 12.49106 14.74921 0 0 0
94 -5.59791 13.34628 15.03004 0 0 0
95 -6.44006 13.90696 15.01312 0 0 0
96 -7.26373 14.27813 14.60505 0 0 0
97 -7.73342 14.86834 15.23407 0 0 0
98 -7.63839 15.28695 16.12537 0 0 0
99 -8.49353 15.79571 16.17023 0 0 0
100 -8.95719 16.69456 16.25204 0 0 0
101 -9.01082 17.62907 16.37321 0 0 0
ITEM: TIMESTEP
5000
ITEM: NUMBER OF ATOMS
101
ITEM: BOX BOUNDS pp pp pp
-1.0000000000000000e+03 1.0000000000000000e+03
-1.0000000000000000e+03 1.0000000000000000e+03
-1.0000000000000000e+03 1.0000000000000000e+03
ITEM: ATOMS id x y z ix iy iz
1 -1.76461 -1.27315 4.63259 0 0 0
2 -1.85986 -0.32262 4.70911 0 0 0
3 -1.94037 0.38133 5.41216 0 0 0
4 -1.88425 0.27683 6.35431 0 0 0
5 -2.80251 0.26651 6.07288 0 0 0
6 -3.16560 0.79501 6.79996 0 0 0
7 -2.85801 1.21197 7.59462 0 0 0
8 -2.51920 0.90711 8.48238 0 0 0
9 -1.92379 1.65152 8.91895 0 0 0
10 -1.36971 2.08413 9.59293 0 0 0
11 -1.05868 2.45669 10.50073 0 0 0
12 -0.39897 1.74040 10.52237 0 0 0
13 -0.12402 1.41736 9.62011 0 0 0
14 0.25214 0.78158 10.33655 0 0 0
15 -0.65347 0.29526 10.25655 0 0 0
16 -0.54220 -0.36566 9.53438 0 0 0
17 0.31181 -0.96815 9.61261 0 0 0
18 1.04953 -1.10238 9.01283 0 0 0
19 0.87015 -0.95579 8.09757 0 0 0
20 1.02042 -0.93497 7.16831 0 0 0
21 1.01211 -1.05046 6.18617 0 0 0
22 -1.92758 2.90563 10.26440 0 0 0
23 -2.90498 2.93742 10.38850 0 0 0
24 -3.78522 2.71500 10.80964 0 0 0
25 -4.73786 2.42398 10.56864 0 0 0
26 -5.50767 2.97530 10.59755 0 0 0
27 -5.93413 2.17604 10.29833 0 0 0
28 -5.72127 1.83232 9.34355 0 0 0
29 -5.45056 0.84265 9.09815 0 0 0
30 -5.12693 -0.10250 9.38156 0 0 0
31 -5.01463 -1.01585 9.70105 0 0 0
32 -0.31090 2.99347 10.73798 0 0 0
33 -0.53148 3.53901 11.44997 0 0 0
34 -1.36628 3.67814 12.05715 0 0 0
35 -1.74354 4.04109 12.84731 0 0 0
36 -2.22066 4.74794 12.39850 0 0 0
37 -1.90418 5.67698 12.45977 0 0 0
38 -2.42306 5.67934 11.61989 0 0 0
39 -2.96219 6.51273 11.47830 0 0 0
40 -3.87224 6.22495 11.99600 0 0 0
41 -4.63174 5.74530 12.44266 0 0 0
42 -4.50606 4.76306 12.46985 0 0 0
43 -3.99536 4.05878 12.98805 0 0 0
44 -4.70273 3.35377 12.76744 0 0 0
45 -4.71440 2.35099 12.88768 0 0 0
46 -4.22946 1.97035 12.12524 0 0 0
47 -3.95779 1.20262 12.77416 0 0 0
48 -3.81562 0.68583 13.56091 0 0 0
49 -3.24360 0.54371 14.29747 0 0 0
50 -2.32034 0.19808 14.22291 0 0 0
51 -1.97290 -0.67840 14.11151 0 0 0
52 -4.72526 5.79326 13.35899 0 0 0
53 -5.53683 5.38555 13.83143 0 0 0
54 -6.35558 5.41033 13.31540 0 0 0
55 -6.01042 4.58576 12.98081 0 0 0
56 -5.51140 4.73656 12.18818 0 0 0
57 -5.34991 3.95552 11.70323 0 0 0
58 -4.56560 3.99324 11.09645 0 0 0
59 -4.24251 4.14975 10.23041 0 0 0
60 -4.18639 3.38858 9.55510 0 0 0
61 -4.69765 2.81397 8.86817 0 0 0
62 -4.72426 6.71956 12.50943 0 0 0
63 -5.34075 6.94314 13.33459 0 0 0
64 -4.92566 7.80197 13.22173 0 0 0
65 -4.37766 8.53460 13.04902 0 0 0
66 -4.27834 9.48492 12.84172 0 0 0
67 -4.35386 10.19901 13.43042 0 0 0
68 -4.36842 10.92477 14.16124 0 0 0
69 -3.35394 11.14154 14.23741 0 0 0
70 -3.79623 11.10052 15.15447 0 0 0
71 -4.55875 11.54611 15.39804 0 0 0
72 -5.20826 10.98345 14.95804 0 0 0
73 -6.14843 11.33277 14.93603 0 0 0
74 -6.23765 12.08634 15.48893 0 0 0
75 -6.10695 12.45966 14.59935 0 0 0
76 -5.84077 13.25341 14.05154 0 0 0
77 -4.86955 13.61972 13.81417 0 0 0
78 -4.28331 14.25684 14.29224 0 0 0
79 -3.88402 13.90133 15.13877 0 0 0
80 -3.91577 13.05993 14.54553 0 0 0
81 -3.76913 13.21433 13.49505 0 0 0
82 -4.50516 10.78494 15.95739 0 0 0
83 -4.58388 9.83853 15.68282 0 0 0
84 -5.30019 9.34596 16.10267 0 0 0
85 -6.11858 8.98864 16.46750 0 0 0
86 -5.76333 9.84785 16.94964 0 0 0
87 -5.24818 9.57652 17.76191 0 0 0
88 -5.15922 8.56311 17.93109 0 0 0
89 -4.74666 7.62105 18.14897 0 0 0
90 -3.85707 7.36692 17.76999 0 0 0
91 -3.96979 8.22655 17.36756 0 0 0
92 -5.35997 11.72964 15.99359 0 0 0
93 -4.93679 12.11611 16.78215 0 0 0
94 -4.81648 13.10051 16.77384 0 0 0
95 -5.30579 13.93491 16.31952 0 0 0
96 -6.05011 14.36487 15.85376 0 0 0
97 -6.36712 14.09451 14.99771 0 0 0
98 -7.26159 13.90063 14.50610 0 0 0
99 -8.19512 14.20106 14.62072 0 0 0
100 -8.52999 14.89505 14.05891 0 0 0
101 -8.78709 14.73497 13.18624 0 0 0
ITEM: TIMESTEP
6000
ITEM: NUMBER OF ATOMS
101
ITEM: BOX BOUNDS pp pp pp
-1.0000000000000000e+03 1.0000000000000000e+03
-1.0000000000000000e+03 1.0000000000000000e+03
-1.0000000000000000e+03 1.0000000000000000e+03
ITEM: ATOMS id x y z ix iy iz
1 -2.83469 3.76784 6.78399 0 0 0
2 -2.03191 3.49212 6.26818 0 0 0
3 -1.15321 3.50450 6.06934 0 0 0
4 -1.23404 2.61153 6.27561 0 0 0
5 -1.36941 1.68775 6.62158 0 0 0
6 -1.13247 1.67657 7.62060 0 0 0
7 -0.93973 2.69268 7.44330 0 0 0
8 -0.98526 2.64924 8.42359 0 0 0
9 -0.80407 2.91706 9.31269 0 0 0
10 -0.60233 3.54695 9.98189 0 0 0
11 -1.45805 4.06289 9.77676 0 0 0
12 -1.75779 3.34831 10.34648 0 0 0
13 -1.71826 2.41837 9.95395 0 0 0
14 -1.76214 1.55472 10.29642 0 0 0
15 -1.25713 0.88077 9.90849 0 0 0
16 -0.70194 0.42207 9.27654 0 0 0
17 -0.19608 0.90156 10.01550 0 0 0
18 0.21907 1.38998 9.27761 0 0 0
19 0.40808 0.44780 8.99279 0 0 0
20 0.52274 0.17324 8.02574 0 0 0
21 -0.42963 0.45759 8.30888 0 0 0
22 -2.27913 4.51184 9.70017 0 0 0
23 -2.82817 4.58510 8.88277 0 0 0
24 -3.52243 3.81385 8.79766 0 0 0
25 -4.45553 4.26085 9.23989 0 0 0
26 -5.04133 4.62611 8.56230 0 0 0
27 -5.84400 5.08143 8.39914 0 0 0
28 -6.43988 4.35478 8.75512 0 0 0
29 -6.98889 3.55851 8.86768 0 0 0
30 -6.79459 2.74496 8.35051 0 0 0
31 -7.61129 2.37634 7.84396 0 0 0
32 -0.93460 4.53527 10.43748 0 0 0
33 -0.30284 4.33956 11.18073 0 0 0
34 -0.10686 4.93620 11.84596 0 0 0
35 -0.64635 5.53796 12.39165 0 0 0
36 -1.09165 4.94583 13.04792 0 0 0
37 -1.81919 4.71202 13.81743 0 0 0
38 -2.05066 4.05717 13.17988 0 0 0
39 -2.76361 4.50259 12.62364 0 0 0
40 -3.55951 5.00730 12.71553 0 0 0
41 -4.41109 4.92721 12.25615 0 0 0
42 -3.93895 4.33858 11.60093 0 0 0
43 -4.08283 3.33654 11.50781 0 0 0
44 -3.24657 2.97608 11.13065 0 0 0
45 -3.65352 2.10598 10.92742 0 0 0
46 -3.41159 1.16011 10.94452 0 0 0
47 -3.36661 0.26928 11.17410 0 0 0
48 -3.31868 -0.31985 11.93870 0 0 0
49 -2.99087 -0.48338 12.80635 0 0 0
50 -2.43955 -1.21922 12.42537 0 0 0
51 -1.99357 -2.11856 12.23018 0 0 0
52 -5.33702 5.19236 12.27407 0 0 0
53 -5.99172 5.32412 13.03219 0 0 0
54 -6.21033 4.92779 13.88191 0 0 0
55 -6.78269 4.59539 13.14468 0 0 0
56 -7.34357 3.90244 12.68517 0 0 0
57 -7.09899 3.43641 11.86823 0 0 0
58 -7.75015 3.33323 11.18513 0 0 0
59 -7.02645 3.36090 10.64733 0 0 0
60 -6.56723 2.54613 10.20884 0 0 0
61 -7.01281 2.32766 9.39061 0 0 0
62 -4.57314 5.42031 13.09942 0 0 0
63 -4.85249 6.32797 12.94921 0 0 0
64 -4.32487 7.05896 12.65795 0 0 0
65 -3.89278 7.91368 12.98584 0 0 0
66 -3.60417 8.65495 13.57343 0 0 0
67 -4.47292 8.81048 13.09636 0 0 0
68 -5.04964 9.58289 13.25785 0 0 0
69 -4.17966 10.03336 13.46067 0 0 0
70 -4.49725 9.81717 14.38427 0 0 0
71 -4.72705 10.82831 14.69334 0 0 0
72 -5.70785 10.97798 14.53062 0 0 0
73 -6.44955 11.35256 14.05251 0 0 0
74 -6.82040 12.22878 14.22874 0 0 0
75 -6.90690 13.09997 13.75684 0 0 0
76 -6.35864 13.64832 13.11839 0 0 0
77 -5.67039 14.36674 12.92319 0 0 0
78 -5.47176 15.20014 13.27955 0 0 0
79 -5.26525 15.87464 14.00837 0 0 0
80 -4.61835 15.94863 14.77100 0 0 0
81 -3.72894 15.93319 15.25542 0 0 0
82 -5.10841 10.78935 15.59417 0 0 0
83 -4.61235 10.48083 16.40117 0 0 0
84 -4.62833 9.67672 16.93797 0 0 0
85 -4.14886 9.02532 17.30412 0 0 0
86 -3.20368 8.86671 17.49016 0 0 0
87 -2.53357 8.30180 18.04898 0 0 0
88 -3.08798 8.38308 18.91100 0 0 0
89 -4.00043 8.21987 19.39956 0 0 0
90 -4.90092 7.57027 19.46776 0 0 0
91 -4.71594 6.58594 19.53585 0 0 0
92 -4.36038 11.59145 14.10237 0 0 0
93 -4.53563 12.07641 14.95655 0 0 0
94 -5.00836 12.52863 15.84473 0 0 0
95 -5.23320 13.36765 16.41865 0 0 0
96 -5.89743 14.04841 16.06931 0 0 0
97 -5.13885 14.47284 15.63053 0 0 0
98 -4.53194 15.19850 15.77753 0 0 0
99 -4.41306 16.15141 16.05926 0 0 0
100 -5.25129 16.47257 15.88480 0 0 0
101 -5.53835 17.41242 16.15531 0 0 0
ITEM: TIMESTEP
7000
ITEM: NUMBER OF ATOMS
101
ITEM: BOX BOUNDS pp pp pp
-1.0000000000000000e+03 1.0000000000000000e+03
-1.0000000000000000e+03 1.0000000000000000e+03
-1.0000000000000000e+03 1.0000000000000000e+03
ITEM: ATOMS id x y z ix iy iz
1 -1.65082 2.83056 8.92601 0 0 0
2 -2.47398 2.28403 8.70350 0 0 0
3 -2.97560 2.98153 8.35597 0 0 0
4 -2.34750 3.66026 7.94163 0 0 0
5 -1.98413 4.58538 7.58260 0 0 0
6 -1.15226 4.26976 7.97345 0 0 0
7 -0.57735 4.66160 8.63657 0 0 0
8 0.09052 5.32521 8.88955 0 0 0
9 0.33768 4.54408 9.40122 0 0 0
10 0.29473 4.06984 10.30754 0 0 0
11 0.41932 4.78736 10.97196 0 0 0
12 1.42584 4.67253 10.85400 0 0 0
13 1.43185 4.34216 9.91832 0 0 0
14 1.35745 3.57064 10.49451 0 0 0
15 1.69449 2.97156 11.20126 0 0 0
16 2.02381 2.00048 11.09073 0 0 0
17 1.10576 1.77673 11.43755 0 0 0
18 1.14919 0.86593 11.68262 0 0 0
19 1.10077 -0.06573 11.92934 0 0 0
20 0.32154 -0.84824 11.81215 0 0 0
21 0.54328 -1.42964 11.05466 0 0 0
22 -0.19867 4.03194 11.31566 0 0 0
23 -0.45118 3.05796 11.64037 0 0 0
24 -1.53909 3.45093 11.66596 0 0 0
25 -1.84834 4.16805 10.97762 0 0 0
26 -2.71167 4.18696 10.54377 0 0 0
27 -3.59736 4.09269 9.95405 0 0 0
28 -4.44066 4.13388 9.49734 0 0 0
29 -4.99886 4.05327 8.65372 0 0 0
30 -5.59922 4.45884 7.99511 0 0 0
31 -6.22625 5.08286 8.36515 0 0 0
32 0.28212 5.28466 11.79385 0 0 0
33 0.31518 6.28037 11.50208 0 0 0
34 -0.63783 6.05463 11.49581 0 0 0
35 -0.35393 6.03379 12.42629 0 0 0
36 -0.52797 5.26921 13.00202 0 0 0
37 -1.22367 5.74997 13.45283 0 0 0
38 -1.89052 5.34210 12.82683 0 0 0
39 -2.31579 4.83623 12.16536 0 0 0
40 -3.11518 4.61167 11.71844 0 0 0
41 -4.07163 4.35392 11.92592 0 0 0
42 -4.27723 3.71403 11.19496 0 0 0
43 -3.54349 2.98563 11.17966 0 0 0
44 -4.04265 2.14110 11.46779 0 0 0
45 -3.46272 2.51507 12.11708 0 0 0
46 -3.74665 2.06158 12.91411 0 0 0
47 -4.32256 2.12868 13.69897 0 0 0
48 -5.17963 2.39135 14.13113 0 0 0
49 -5.65674 2.62006 14.94537 0 0 0
50 -6.35940 2.63395 15.61032 0 0 0
51 -5.65386 2.96277 16.28540 0 0 0
52 -4.06441 3.66324 12.59231 0 0 0
53 -4.80614 2.99016 12.35690 0 0 0
54 -5.31234 2.24315 11.99602 0 0 0
55 -6.02267 1.99819 11.33650 0 0 0
56 -6.83964 2.05468 10.86122 0 0 0
57 -7.19269 2.45155 10.08431 0 0 0
58 -8.11653 2.10461 10.26078 0 0 0
59 -8.26663 2.14944 11.27998 0 0 0
60 -7.85959 1.30502 11.37012 0 0 0
61 -8.65212 0.68651 11.54180 0 0 0
62 -4.32653 4.90878 12.70286 0 0 0
63 -3.93281 5.82225 12.56665 0 0 0
64 -3.87522 6.75591 12.35749 0 0 0
65 -2.95507 6.75696 12.64865 0 0 0
66 -2.39477 7.20622 13.25704 0 0 0
67 -2.65236 8.02537 13.68191 0 0 0
68 -3.18978 8.81316 13.86666 0 0 0
69 -3.47894 9.77189 14.01511 0 0 0
70 -4.15767 10.40093 14.43591 0 0 0
71 -3.95249 10.59247 15.39872 0 0 0
72 -3.84671 11.33045 14.57342 0 0 0
73 -4.37011 12.12746 14.23041 0 0 0
74 -4.92962 12.62464 13.65927 0 0 0
75 -5.93147 12.75070 13.35892 0 0 0
76 -6.72232 13.27924 13.10669 0 0 0
77 -7.49648 13.54678 13.64625 0 0 0
78 -7.76295 13.43389 14.59678 0 0 0
79 -7.44517 14.39551 14.82130 0 0 0
80 -6.71754 15.22384 14.63673 0 0 0
81 -6.19110 15.78871 13.98893 0 0 0
82 -3.82124 10.97708 16.28098 0 0 0
83 -3.01309 11.25246 15.72123 0 0 0
84 -2.13272 11.45831 16.13411 0 0 0
85 -2.51207 11.37071 17.10504 0 0 0
86 -1.94235 11.94481 17.66523 0 0 0
87 -1.22102 12.56646 17.15070 0 0 0
88 -0.70517 11.74336 17.10933 0 0 0
89 0.00789 11.37181 16.65929 0 0 0
90 0.27590 10.84483 17.42722 0 0 0
91 0.72324 9.93549 17.70721 0 0 0
92 -4.76628 11.07950 15.50237 0 0 0
93 -5.35642 11.86224 15.46377 0 0 0