ITEM: TIMESTEP
0
ITEM: NUMBER OF ATOMS
199
ITEM: BOX BOUNDS pp pp pp
-1.0000000000000000e+03 1.0000000000000000e+03
-1.0000000000000000e+03 1.0000000000000000e+03
-1.0000000000000000e+03 1.0000000000000000e+03
ITEM: ATOMS id x y z ix iy iz
1 0.00000 0.00000 0.00000 0 0 0
2 0.00000 0.00000 1.00000 0 0 0
3 0.00000 -0.50000 1.86603 0 0 0
4 0.00000 0.00000 2.73205 0 0 0
5 0.00000 -0.50000 3.59808 0 0 0
6 0.00000 0.00000 4.46410 0 0 0
7 0.00000 -0.50000 5.33013 0 0 0
8 0.00000 0.00000 6.19615 0 0 0
9 0.00000 -0.50000 7.06218 0 0 0
10 0.00000 0.00000 7.92820 0 0 0
11 0.00000 -0.50000 8.79423 0 0 0
12 0.00000 0.00000 9.66025 0 0 0
13 0.00000 -0.50000 10.52628 0 0 0
14 0.00000 0.00000 11.39230 0 0 0
15 0.00000 -0.50000 12.25833 0 0 0
16 0.00000 0.00000 13.12436 0 0 0
17 0.00000 -0.50000 13.99038 0 0 0
18 0.00000 0.00000 14.85641 0 0 0
19 0.00000 -0.50000 15.72243 0 0 0
20 0.00000 0.00000 16.58846 0 0 0
21 0.00000 -0.50000 17.45448 0 0 0
22 0.00000 0.00000 18.32051 0 0 0
23 0.00000 -0.50000 19.18653 0 0 0
24 0.00000 0.00000 20.05256 0 0 0
25 0.00000 -0.50000 20.91858 0 0 0
26 0.00000 0.00000 21.78461 0 0 0
27 0.00000 -0.50000 22.65064 0 0 0
28 0.00000 0.00000 23.51666 0 0 0
29 0.00000 -0.50000 24.38269 0 0 0
30 0.00000 0.00000 25.24871 0 0 0
31 0.00000 -0.50000 26.11474 0 0 0
32 0.00000 0.00000 26.98076 0 0 0
33 0.00000 -0.50000 27.84679 0 0 0
34 0.00000 0.00000 28.71281 0 0 0
35 0.00000 -0.50000 29.57884 0 0 0
36 0.00000 0.00000 30.44486 0 0 0
37 0.00000 -0.50000 31.31089 0 0 0
38 0.00000 0.00000 32.17691 0 0 0
39 0.00000 -0.50000 33.04294 0 0 0
40 0.00000 0.00000 33.90897 0 0 0
41 0.00000 -0.50000 34.77499 0 0 0
42 0.00000 0.00000 35.64102 0 0 0
43 0.00000 -0.50000 36.50704 0 0 0
44 0.00000 0.00000 37.37307 0 0 0
45 0.00000 -0.50000 38.23909 0 0 0
46 0.00000 0.00000 39.10512 0 0 0
47 0.00000 -0.50000 39.97114 0 0 0
48 0.00000 0.00000 40.83717 0 0 0
49 0.00000 -0.50000 41.70319 0 0 0
50 0.00000 0.00000 42.56922 0 0 0
51 0.00000 -0.50000 43.43524 0 0 0
52 0.00000 0.00000 44.30127 0 0 0
53 0.00000 -0.50000 45.16730 0 0 0
54 0.00000 0.00000 46.03332 0 0 0
55 0.00000 -0.50000 46.89935 0 0 0
56 0.00000 0.00000 47.76537 0 0 0
57 0.00000 -0.50000 48.63140 0 0 0
58 0.00000 0.00000 49.49742 0 0 0
59 0.00000 -0.50000 50.36345 0 0 0
60 0.00000 0.00000 51.22947 0 0 0
61 0.00000 -0.50000 52.09550 0 0 0
62 0.00000 0.00000 52.96152 0 0 0
63 0.00000 -0.50000 53.82755 0 0 0
64 0.00000 0.00000 54.69358 0 0 0
65 0.00000 -0.50000 55.55960 0 0 0
66 0.00000 0.00000 56.42563 0 0 0
67 0.00000 -0.50000 57.29165 0 0 0
68 -0.80611 -0.47589 57.88292 0 0 0
69 -1.61223 -0.75065 58.40703 0 0 0
70 -2.41834 -0.43414 58.90703 0 0 0
71 -3.22446 -0.70890 59.43113 0 0 0
72 -4.03057 -0.39239 59.93113 0 0 0
73 -4.83669 -0.66714 60.45524 0 0 0
74 -5.64280 -0.35063 60.95524 0 0 0
75 -6.44892 -0.62539 61.47934 0 0 0
76 -7.25503 -0.30888 61.97934 0 0 0
77 -8.06115 -0.58364 62.50345 0 0 0
78 -8.86726 -0.26713 63.00345 0 0 0
79 -9.67338 -0.54188 63.52756 0 0 0
80 -10.47949 -0.22537 64.02756 0 0 0
81 -11.28561 -0.50013 64.55166 0 0 0
82 -12.09172 -0.18362 65.05166 0 0 0
83 -12.89784 -0.45838 65.57577 0 0 0
84 -13.70395 -0.14187 66.07577 0 0 0
85 -14.51006 -0.41662 66.59988 0 0 0
86 -15.31618 -0.10011 67.09988 0 0 0
87 -16.12229 -0.37487 67.62398 0 0 0
88 -16.92841 -0.05836 68.12398 0 0 0
89 -17.73452 -0.33312 68.64809 0 0 0
90 -18.54064 -0.01660 69.14809 0 0 0
91 -19.34675 -0.29136 69.67220 0 0 0
92 -20.15287 0.02515 70.17220 0 0 0
93 -20.95898 -0.24961 70.69630 0 0 0
94 -21.76510 0.06690 71.19630 0 0 0
95 -22.57121 -0.20786 71.72041 0 0 0
96 -23.37733 0.10866 72.22041 0 0 0
97 -24.18344 -0.16610 72.74452 0 0 0
98 -24.98956 0.15041 73.24452 0 0 0
99 -25.79567 -0.12435 73.76862 0 0 0
100 -26.60179 0.19216 74.26862 0 0 0
101 -27.40790 -0.08259 74.79273 0 0 0
102 -28.21401 0.23392 75.29273 0 0 0
103 -29.02013 -0.04084 75.81683 0 0 0
104 -29.82624 0.27567 76.31683 0 0 0
105 -30.63236 0.00091 76.84094 0 0 0
106 -31.43847 0.31742 77.34094 0 0 0
107 -32.24459 0.04267 77.86505 0 0 0
108 -33.05070 0.35918 78.36505 0 0 0
109 -33.85682 0.08442 78.88915 0 0 0
110 -34.66293 0.40093 79.38915 0 0 0
111 -35.46905 0.12617 79.91326 0 0 0
112 -36.27516 0.44268 80.41326 0 0 0
113 -37.08128 0.16793 80.93737 0 0 0
114 -37.88739 0.48444 81.43737 0 0 0
115 -38.69351 0.20968 81.96147 0 0 0
116 -39.49962 0.52619 82.46147 0 0 0
117 -40.30573 0.25143 82.98558 0 0 0
118 -41.11185 0.56794 83.48558 0 0 0
119 -41.91796 0.29319 84.00969 0 0 0
120 -42.72408 0.60970 84.50969 0 0 0
121 -43.53019 0.33494 85.03379 0 0 0
122 -44.33631 0.65145 85.53379 0 0 0
123 -45.14242 0.37669 86.05790 0 0 0
124 -45.94854 0.69320 86.55790 0 0 0
125 -46.75465 0.41845 87.08201 0 0 0
126 -47.56077 0.73496 87.58201 0 0 0
127 -48.36688 0.46020 88.10611 0 0 0
128 -49.17300 0.77671 88.60611 0 0 0
129 -49.97911 0.50195 89.13022 0 0 0
130 -50.78523 0.81847 89.63022 0 0 0
131 -51.59134 0.54371 90.15432 0 0 0
132 -52.39746 0.86022 90.65432 0 0 0
133 -53.20357 0.58546 91.17843 0 0 0
134 0.80611 -1.02411 57.56641 0 0 0
135 1.61223 -1.61537 57.54230 0 0 0
136 2.41834 -1.93189 58.04230 0 0 0
137 3.22446 -2.52315 58.01820 0 0 0
138 4.03057 -2.83966 58.51820 0 0 0
139 4.83669 -3.43093 58.49409 0 0 0
140 5.64280 -3.74744 58.99409 0 0 0
141 6.44892 -4.33871 58.96998 0 0 0
142 7.25503 -4.65522 59.46998 0 0 0
143 8.06115 -5.24649 59.44588 0 0 0
144 8.86726 -5.56300 59.94588 0 0 0
145 9.67338 -6.15427 59.92177 0 0 0
146 10.47949 -6.47078 60.42177 0 0 0
147 11.28561 -7.06205 60.39766 0 0 0
148 12.09172 -7.37856 60.89766 0 0 0
149 12.89784 -7.96983 60.87356 0 0 0
150 13.70395 -8.28634 61.37356 0 0 0
151 14.51006 -8.87761 61.34945 0 0 0
152 15.31618 -9.19412 61.84945 0 0 0
153 16.12229 -9.78538 61.82534 0 0 0
154 16.92841 -10.10190 62.32534 0 0 0
155 17.73452 -10.69316 62.30124 0 0 0
156 18.54064 -11.00967 62.80124 0 0 0
157 19.34675 -11.60094 62.77713 0 0 0
158 20.15287 -11.91745 63.27713 0 0 0
159 20.95898 -12.50872 63.25303 0 0 0
160 21.76510 -12.82523 63.75303 0 0 0
161 22.57121 -13.41650 63.72892 0 0 0
162 23.37733 -13.73301 64.22892 0 0 0
163 24.18344 -14.32428 64.20481 0 0 0
164 24.98956 -14.64079 64.70481 0 0 0
165 25.79567 -15.23206 64.68071 0 0 0
166 26.60179 -15.54857 65.18071 0 0 0
167 27.40790 -16.13984 65.15660 0 0 0
168 28.21401 -16.45635 65.65660 0 0 0
169 29.02013 -17.04762 65.63249 0 0 0
170 29.82624 -17.36413 66.13249 0 0 0
171 30.63236 -17.95540 66.10839 0 0 0
172 31.43847 -18.27191 66.60839 0 0 0
173 32.24459 -18.86317 66.58428 0 0 0
174 33.05070 -19.17968 67.08428 0 0 0
175 33.85682 -19.77095 67.06017 0 0 0
176 34.66293 -20.08746 67.56017 0 0 0
177 35.46905 -20.67873 67.53607 0 0 0
178 36.27516 -20.99524 68.03607 0 0 0
179 37.08128 -21.58651 68.01196 0 0 0
180 37.88739 -21.90302 68.51196 0 0 0
181 38.69351 -22.49429 68.48785 0 0 0
182 39.49962 -22.81080 68.98785 0 0 0
183 40.30573 -23.40207 68.96375 0 0 0
184 41.11185 -23.71858 69.46375 0 0 0
185 41.91796 -24.30985 69.43964 0 0 0
186 42.72408 -24.62636 69.93964 0 0 0
187 43.53019 -25.21763 69.91554 0 0 0
188 44.33631 -25.53414 70.41554 0 0 0
189 45.14242 -26.12541 70.39143 0 0 0
190 45.94854 -26.44192 70.89143 0 0 0
191 46.75465 -27.03318 70.86732 0 0 0
192 47.56077 -27.34970 71.36732 0 0 0
193 48.36688 -27.94096 71.34322 0 0 0
194 49.17300 -28.25747 71.84322 0 0 0
195 49.97911 -28.84874 71.81911 0 0 0
196 50.78523 -29.16525 72.31911 0 0 0
197 51.59134 -29.75652 72.29500 0 0 0
198 52.39746 -30.07303 72.79500 0 0 0
199 53.20357 -30.66430 72.77090 0 0 0
ITEM: TIMESTEP
1000
ITEM: NUMBER OF ATOMS
199
ITEM: BOX BOUNDS pp pp pp
-1.0000000000000000e+03 1.0000000000000000e+03
-1.0000000000000000e+03 1.0000000000000000e+03
-1.0000000000000000e+03 1.0000000000000000e+03
ITEM: ATOMS id x y z ix iy iz
1 1.74736 1.38731 3.41488 0 0 0
2 0.89045 1.84619 3.45625 0 0 0
3 0.32424 2.34856 4.01916 0 0 0
4 0.04507 1.78332 4.79327 0 0 0
5 0.95216 1.49237 5.14832 0 0 0
6 1.54146 1.00672 5.78023 0 0 0
7 1.21401 0.08859 5.89793 0 0 0
8 0.62910 -0.50273 6.53195 0 0 0
9 0.59781 -0.54772 7.57456 0 0 0
10 0.26737 0.04178 8.29629 0 0 0
11 0.50247 0.22295 9.22478 0 0 0
12 0.83764 0.17153 10.17026 0 0 0
13 0.42126 0.63953 11.01627 0 0 0
14 -0.10332 0.36568 11.83247 0 0 0
15 -0.28721 0.12230 12.75227 0 0 0
16 0.21487 -0.09831 13.56489 0 0 0
17 0.30787 -0.58793 14.37068 0 0 0
18 0.29556 -0.74937 15.38079 0 0 0
19 -0.35234 -1.05602 16.19417 0 0 0
20 0.03458 -1.53396 16.96074 0 0 0
21 -0.21661 -1.63257 17.91018 0 0 0
22 -0.30705 -1.45623 18.89139 0 0 0
23 -0.29474 -0.78368 19.60412 0 0 0
24 0.05329 -0.46472 20.44116 0 0 0
25 0.38560 -0.46540 21.47253 0 0 0
26 0.83228 -0.12763 22.19786 0 0 0
27 0.33497 -0.05294 23.07334 0 0 0
28 0.03093 -0.05286 23.97884 0 0 0
29 0.09201 -0.16221 24.99309 0 0 0
30 0.20764 -0.18094 25.95633 0 0 0
31 -0.13188 -0.63442 26.86452 0 0 0
32 -0.03422 -0.14358 27.68424 0 0 0
33 -0.11884 0.16057 28.64694 0 0 0
34 -0.20612 0.20241 29.59878 0 0 0
35 -0.36841 -0.43781 30.38958 0 0 0
36 -0.48877 -0.53149 31.37819 0 0 0
37 -0.13973 -0.60030 32.22830 0 0 0
38 0.67333 -0.57812 32.92322 0 0 0
39 0.35460 0.05350 33.58939 0 0 0
40 0.95569 -0.18152 34.39331 0 0 0
41 0.55527 -0.03229 35.31305 0 0 0
42 0.40162 -0.27736 36.19547 0 0 0
43 0.87343 -0.05517 37.04853 0 0 0
44 1.00709 0.14978 38.01334 0 0 0
45 0.98679 -0.11629 39.01222 0 0 0
46 0.88989 -0.36111 39.96279 0 0 0
47 1.06429 -0.54466 40.94670 0 0 0
48 1.44978 -1.01358 41.78227 0 0 0
49 1.07872 -0.62209 42.60812 0 0 0
50 1.38140 -0.26983 43.58004 0 0 0
51 1.67419 0.24083 44.34962 0 0 0
52 1.52064 0.30491 45.28665 0 0 0
53 1.25893 0.16544 46.25749 0 0 0
54 0.94693 -0.02555 47.29862 0 0 0
55 0.75190 -0.63757 48.17787 0 0 0
56 0.72692 -0.81891 49.18634 0 0 0
57 0.17771 -0.69818 49.96525 0 0 0
58 0.63174 -0.13338 50.67153 0 0 0
59 0.55858 -0.96258 51.14822 0 0 0
60 0.52908 -1.04479 52.12009 0 0 0
61 0.41367 -1.02001 53.13167 0 0 0
62 0.34110 -0.85482 54.07420 0 0 0
63 0.38698 -1.01625 55.07800 0 0 0
64 0.30630 -1.21012 56.01719 0 0 0
65 -0.22696 -1.58462 56.75933 0 0 0
66 -0.30944 -2.06692 57.59509 0 0 0
67 0.07436 -2.84826 58.09697 0 0 0
68 -0.90285 -2.88599 58.39837 0 0 0
69 -1.66168 -2.78100 59.06757 0 0 0
70 -2.22406 -2.58255 59.81372 0 0 0
71 -2.98041 -2.20114 60.29412 0 0 0
72 -3.55237 -2.01622 61.09284 0 0 0
73 -4.29696 -1.67452 61.65746 0 0 0
74 -5.16714 -1.58505 62.05804 0 0 0
75 -6.17159 -1.40289 62.36222 0 0 0
76 -6.83438 -0.92867 62.86368 0 0 0
77 -7.65280 -0.76766 63.48192 0 0 0
78 -8.50006 -0.43027 63.79744 0 0 0
79 -9.24112 -0.01468 64.32955 0 0 0
80 -10.14931 -0.06146 64.90090 0 0 0
81 -11.14993 -0.00657 65.12161 0 0 0
82 -11.99649 -0.17091 65.55874 0 0 0
83 -12.76004 -0.22146 66.27299 0 0 0
84 -13.69154 -0.49031 66.54313 0 0 0
85 -14.34123 0.00884 66.97842 0 0 0
86 -14.95633 0.85613 67.35256 0 0 0
87 -15.87498 0.90779 67.69242 0 0 0
88 -16.31178 0.58027 68.46580 0 0 0
89 -17.35118 0.46946 68.47136 0 0 0
90 -17.89360 0.40292 69.27444 0 0 0
91 -18.65695 0.35329 69.95837 0 0 0
92 -19.23070 0.56597 70.71819 0 0 0
93 -20.14203 0.65840 71.23533 0 0 0
94 -20.78497 0.31109 71.95876 0 0 0
95 -21.54969 0.13608 72.52068 0 0 0
96 -22.32071 -0.59415 72.74266 0 0 0
97 -23.23295 -0.88048 73.18899 0 0 0
98 -24.01969 -0.78796 73.73498 0 0 0
99 -24.75592 -0.36157 74.17133 0 0 0
100 -25.74046 -0.22580 74.52802 0 0 0
101 -26.64353 0.07184 74.62655 0 0 0
102 -27.14441 -0.08011 75.59290 0 0 0
103 -27.83634 0.27625 76.16842 0 0 0
104 -28.42841 0.72493 76.82509 0 0 0
105 -29.00603 0.74359 77.66719 0 0 0
106 -29.95041 0.74622 77.69289 0 0 0
107 -30.96599 0.54648 77.86093 0 0 0
108 -31.69276 -0.05929 78.14954 0 0 0
109 -32.39883 -0.55879 78.50072 0 0 0
110 -33.30836 -0.79797 78.40470 0 0 0
111 -34.05936 -0.10872 78.53847 0 0 0
112 -34.83626 0.44422 78.54814 0 0 0
113 -35.61017 0.31154 79.15574 0 0 0
114 -36.36550 0.40748 79.76345 0 0 0
115 -36.86130 -0.48193 79.81046 0 0 0
116 -37.85072 -0.43760 79.95458 0 0 0
117 -38.72752 -0.22060 80.21465 0 0 0
118 -39.02356 -0.00568 81.04920 0 0 0
119 -39.95476 -0.12087 81.46933 0 0 0
120 -40.80180 -0.24226 81.89334 0 0 0
121 -41.57278 -0.30448 82.55941 0 0 0
122 -42.12529 0.35898 83.07618 0 0 0
123 -43.00807 0.74299 83.28462 0 0 0
124 -43.44425 1.20068 84.00211 0 0 0
125 -44.19010 1.75868 84.51059 0 0 0
126 -44.93676 2.21046 84.78205 0 0 0
127 -45.02157 1.76106 85.67373 0 0 0
128 -45.92394 1.77801 85.29316 0 0 0
129 -46.80012 1.37055 85.12708 0 0 0
130 -47.56857 0.86478 85.38225 0 0 0
131 -47.69731 0.99256 86.33529 0 0 0
132 -47.58559 1.29338 87.30535 0 0 0
133 -47.40710 2.22986 87.56815 0 0 0
134 0.99818 -3.07457 58.28731 0 0 0
135 1.67975 -3.70525 58.09951 0 0 0
136 2.54959 -3.99276 58.54681 0 0 0
137 3.51361 -4.76448 58.73545 0 0 0
138 4.52163 -4.77573 58.49560 0 0 0
139 5.52086 -4.95227 58.63397 0 0 0
140 6.46324 -5.16593 58.53629 0 0 0
141 7.29285 -5.53745 58.79445 0 0 0
142 8.04656 -6.14735 58.82140 0 0 0
143 8.84161 -6.69617 59.16631 0 0 0
144 9.70845 -7.12425 59.30911 0 0 0
145 10.33743 -7.69568 59.79128 0 0 0
146 11.17119 -8.19404 60.07236 0 0 0
147 12.04876 -7.88899 60.34368 0 0 0
148 12.96349 -8.06409 60.55221 0 0 0
149 13.82136 -8.65719 60.71610 0 0 0
150 14.48833 -9.27554 61.05010 0 0 0
151 15.47974 -9.64578 60.90463 0 0 0
152 16.40706 -10.04076 61.05617 0 0 0
153 17.25805 -10.72654 61.02767 0 0 0
154 17.97430 -11.32891 61.29576 0 0 0
155 18.86277 -11.74841 61.59274 0 0 0
156 19.54121 -12.25630 62.05543 0 0 0
157 20.43674 -12.67389 62.17044 0 0 0
158 21.27533 -13.17099 62.43459 0 0 0
159 22.22585 -13.45895 62.10766 0 0 0
160 23.13492 -13.50025 62.40928 0 0 0
161 24.10175 -13.58508 62.17049 0 0 0
162 24.40554 -14.08529 63.02131 0 0 0
163 24.90801 -14.76061 63.59463 0 0 0
164 25.62138 -15.39597 63.92512 0 0 0
165 26.56059 -15.46747 63.97187 0 0 0
166 27.01453 -15.94267 64.71776 0 0 0
167 27.85154 -15.89435 65.12127 0 0 0
168 28.34235 -16.69460 65.45951 0 0 0
169 29.21014 -16.96889 65.11168 0 0 0
170 30.08492 -16.93419 65.62828 0 0 0
171 30.42900 -17.75281 66.13331 0 0 0
172 31.43327 -18.21804 66.03725 0 0 0
173 32.17754 -18.79802 66.51003 0 0 0
174 32.62542 -19.17860 67.23871 0 0 0
175 33.64015 -19.40322 67.13962 0 0 0
176 34.40226 -20.01989 67.33786 0 0 0
177 35.20712 -20.51887 67.24276 0 0 0
178 36.04406 -20.91339 67.28032 0 0 0
179 36.91587 -21.20409 67.56491 0 0 0
180 37.62221 -21.76660 67.86136 0 0 0
181 38.29797 -22.24130 68.44906 0 0 0
182 39.06146 -22.43003 69.11098 0 0 0
183 40.04441 -22.28080 69.23939 0 0 0
184 40.40907 -23.04483 68.81688 0 0 0
185 41.22243 -23.55254 68.77461 0 0 0
186 41.87733 -24.22586 69.11937 0 0 0
187 42.40579 -25.00417 69.09111 0 0 0
188 43.29303 -25.06381 69.40997 0 0 0
189 43.34492 -26.02835 69.56858 0 0 0
190 44.13655 -26.52136 69.68591 0 0 0
191 45.04783 -26.56002 70.09266 0 0 0
192 45.61005 -27.33228 69.91690 0 0 0
193 45.72871 -27.94559 70.60639 0 0 0
194 45.16768 -28.52630 71.04083 0 0 0
195 44.51257 -28.68219 71.73984 0 0 0
196 45.19825 -29.27401 72.06259 0 0 0
197 46.14884 -29.63428 71.74975 0 0 0
198 46.66869 -30.49516 71.96139 0 0 0
199 47.40009 -30.34540 71.38209 0 0 0
ITEM: TIMESTEP
2000
ITEM: NUMBER OF ATOMS
199
ITEM: BOX BOUNDS pp pp pp
-1.0000000000000000e+03 1.0000000000000000e+03
-1.0000000000000000e+03 1.0000000000000000e+03
-1.0000000000000000e+03 1.0000000000000000e+03
ITEM: ATOMS id x y z ix iy iz
1 -0.47319 2.66296 3.83955 0 0 0
2 0.18952 3.14842 4.39900 0 0 0
3 0.28642 2.67380 5.27653 0 0 0
4 0.57390 2.33317 6.13997 0 0 0
5 0.68492 2.08499 7.08540 0 0 0
6 0.44244 1.27448 7.60226 0 0 0
7 -0.21569 0.94651 8.25780 0 0 0
8 0.20866 0.86946 9.16889 0 0 0
9 -0.19863 0.05771 9.68621 0 0 0
10 -0.36263 0.50550 10.54023 0 0 0
11 -1.01183 0.90542 11.09537 0 0 0
12 -1.74038 0.57167 11.66163 0 0 0
13 -1.02676 0.35706 12.30571 0 0 0
14 -0.91426 0.86944 13.18371 0 0 0
15 -0.91892 0.98064 14.15953 0 0 0
16 -0.60613 1.19388 15.11925 0 0 0
17 -0.88541 0.84451 15.98251 0 0 0
18 -0.35587 0.71457 16.74430 0 0 0
19 -0.10695 0.63807 17.75819 0 0 0
20 -0.47854 0.30555 18.54698 0 0 0
21 -0.32962 0.14133 19.52979 0 0 0
22 -0.41883 0.29343 20.52134 0 0 0
23 -0.94301 -0.24399 21.27377 0 0 0
24 -0.89843 0.04389 22.21762 0 0 0
25 -0.52064 -0.71885 22.66998 0 0 0
26 0.05483 -0.94075 23.51806 0 0 0
27 -0.18401 -1.02742 24.52981 0 0 0
28 -0.47364 -0.63494 25.40859 0 0 0
29 -0.09012 0.03918 25.96947 0 0 0
30 -0.54014 0.41088 26.74874 0 0 0
31 -0.71943 0.34732 27.64646 0 0 0
32 -0.00584 0.46363 28.28813 0 0 0
33 0.02438 -0.12699 29.05938 0 0 0
34 -0.19827 -0.88767 29.73248 0 0 0
35 0.09034 -0.37602 30.50653 0 0 0
36 0.12065 -0.39159 31.47296 0 0 0
37 -0.10386 -0.34983 32.41214 0 0 0
38 -0.26491 -0.24756 33.38043 0 0 0
39 0.18840 -0.85038 33.98707 0 0 0
40 0.28530 -0.39347 34.84025 0 0 0
41 0.35817 -0.81974 35.71698 0 0 0
42 0.16041 -0.80676 36.67269 0 0 0
43 0.58145 -0.45073 37.54543 0 0 0
44 1.18968 -0.13374 38.35113 0 0 0
45 1.42576 0.31255 39.20168 0 0 0
46 1.91689 -0.27961 39.77089 0 0 0
47 1.79649 -0.49500 40.68825 0 0 0
48 2.00291 -0.23830 41.60160 0 0 0
49 1.78220 -0.69710 42.45468 0 0 0
50 1.70991 -0.36675 43.37875 0 0 0
51 1.20737 -0.16468 44.18828 0 0 0
52 0.81547 -0.03648 45.07483 0 0 0
53 0.89117 -0.63003 45.79071 0 0 0
54 0.32864 -0.90858 46.55147 0 0 0
55 0.43520 -0.72624 47.52932 0 0 0
56 0.77546 -0.98284 48.45505 0 0 0
57 0.35841 -1.27536 49.35468 0 0 0
58 -0.06540 -1.14903 50.26136 0 0 0
59 0.00566 -1.03398 51.21321 0 0 0
60 -0.51795 -1.31802 51.95561 0 0 0
61 -0.25333 -1.68374 52.86998 0 0 0
62 -0.24773 -2.39290 53.52368 0 0 0
63 -0.29108 -2.89983 54.42238 0 0 0
64 -0.32832 -3.16991 55.34015 0 0 0
65 -0.40474 -2.98788 56.33691 0 0 0
66 0.11488 -2.97829 57.13305 0 0 0
67 0.38079 -3.33608 58.02504 0 0 0
68 -0.35445 -3.72694 58.59537 0 0 0
69 -0.79809 -3.10670 59.28880 0 0 0
70 -1.43983 -3.08924 60.10806 0 0 0
71 -2.27753 -2.76536 60.52757 0 0 0
72 -3.21056 -2.41052 60.70838 0 0 0
73 -3.93789 -2.90062 61.17873 0 0 0
74 -4.73922 -2.79703 61.78764 0 0 0
75 -5.00715 -2.36071 62.59496 0 0 0
76 -5.91641 -2.14599 62.84874 0 0 0
77 -6.67293 -2.36317 63.45532 0 0 0
78 -7.47363 -1.83155 63.78560 0 0 0
79 -8.27785 -2.06426 64.47785 0 0 0
80 -8.87152 -1.41784 64.87582 0 0 0
81 -9.65982 -1.24994 65.49658 0 0 0
82 -10.27757 -1.20189 66.20561 0 0 0
83 -11.05446 -0.78263 66.67280 0 0 0
84 -11.74623 -0.65539 67.44067 0 0 0
85 -12.32754 0.00386 67.90564 0 0 0
86 -13.31056 -0.04624 68.19001 0 0 0
87 -13.91288 0.36760 68.83586 0 0 0
88 -14.50104 0.66343 69.52683 0 0 0
89 -15.17661 0.54117 70.23189 0 0 0
90 -16.09865 0.09781 70.54843 0 0 0
91 -16.90773 0.19874 71.18907 0 0 0
92 -17.68720 0.53111 71.53729 0 0 0
93 -18.58007 0.69067 71.97223 0 0 0
94 -19.33144 0.21801 72.43734 0 0 0
95 -20.01403 0.31090 73.26122 0 0 0
96 -20.61250 0.30121 74.05016 0 0 0
97 -21.54199 -0.00618 74.21991 0 0 0
98 -22.32106 -0.09744 74.79460 0 0 0
99 -23.00841 0.24500 75.42553 0 0 0
100 -24.05687 0.39361 75.23221 0 0 0
101 -24.95196 0.60507 75.17868 0 0 0
102 -25.98828 0.61862 75.15867 0 0 0
103 -26.17770 -0.38380 75.28966 0 0 0
104 -27.06771 -0.47281 75.79545 0 0 0
105 -27.83968 -0.16189 76.26064 0 0 0
106 -28.78291 -0.39312 76.52587 0 0 0
107 -29.36426 0.11074 75.88742 0 0 0
108 -30.32023 -0.32315 75.90909 0 0 0
109 -31.20299 -0.46015 76.25441 0 0 0
110 -31.85190 -0.84199 76.87307 0 0 0
111 -32.74471 -1.15368 77.03624 0 0 0
112 -33.51704 -0.63879 77.44119 0 0 0
113 -34.04978 -0.63447 78.32698 0 0 0
114 -34.44837 -0.50414 79.22082 0 0 0
115 -35.26736 -0.72654 79.63792 0 0 0
116 -36.10579 -0.35256 79.98014 0 0 0
117 -37.07764 -0.29460 80.44406 0 0 0
118 -38.14160 -0.10526 80.63781 0 0 0
119 -38.79337 -0.87099 80.63247 0 0 0
120 -39.62304 -0.97451 80.19928 0 0 0
121 -40.30242 -0.90519 80.91170 0 0 0
122 -40.93124 -0.39357 81.52135 0 0 0
123 -41.67782 0.01708 82.10134 0 0 0
124 -42.34692 0.13692 82.79052 0 0 0
125 -43.10658 0.19178 83.39079 0 0 0
126 -43.24883 0.31571 84.35487 0 0 0
127 -44.16770 0.08923 84.51737 0 0 0
128 -44.40088 0.31425 83.50394 0 0 0
129 -45.09146 1.02510 83.43283 0 0 0
130 -45.78633 1.68036 83.04162 0 0 0
131 -46.66066 2.12442 82.80572 0 0 0
132 -47.07999 2.61941 83.51489 0 0 0
133 -47.71032 2.03542 83.97971 0 0 0
134 1.20941 -3.53890 58.42747 0 0 0
135 2.10536 -3.89703 58.64729 0 0 0
136 2.38896 -4.43133 59.38346 0 0 0
137 3.14883 -3.85082 59.24212 0 0 0
138 4.00524 -4.36301 59.31034 0 0 0
139 5.01322 -4.87774 59.41582 0 0 0
140 5.83069 -4.32800 59.61221 0 0 0
141 6.66567 -4.47395 59.19878 0 0 0
142 7.54412 -4.72329 59.62969 0 0 0
143 8.05662 -5.43328 60.13653 0 0 0
144 8.25545 -6.00725 61.03331 0 0 0
145 8.87198 -6.77457 60.92456 0 0 0
146 9.73051 -7.26668 60.92503 0 0 0
147 10.52729 -7.87716 61.14116 0 0 0
148 11.08938 -8.80545 61.18111 0 0 0
149 11.79926 -9.31691 61.56255 0 0 0
150 12.56051 -9.98997 61.71640 0 0 0
151 13.29275 -10.73822 62.01018 0 0 0
152 14.31043 -10.68734 61.90682 0 0 0
153 15.28137 -11.23161 61.85848 0 0 0
154 16.28611 -11.17503 61.70461 0 0 0
155 17.25331 -11.42132 61.86763 0 0 0
156 18.17736 -11.03127 61.90916 0 0 0
157 19.06840 -11.61793 61.59294 0 0 0
158 19.56643 -12.46354 62.06174 0 0 0
159 19.98181 -13.20285 62.47224 0 0 0
160 20.93151 -13.26607 62.69514 0 0 0
161 21.74141 -13.72621 62.81738 0 0 0
162 22.53787 -14.11994 63.31083 0 0 0
163 23.44857 -14.60103 63.32374 0 0 0
164 23.89867 -15.38897 63.67069 0 0 0
165 24.69802 -15.89732 63.98146 0 0 0
166 25.64003 -15.84882 64.38950 0 0 0
167 26.57836 -15.84477 64.60024 0 0 0
168 27.46659 -16.40314 64.96958 0 0 0
169 28.17411 -16.90945 65.38253 0 0 0
170 28.93207 -17.21274 65.82543 0 0 0
171 29.79212 -17.37231 66.28058 0 0 0
172 30.50531 -17.06468 65.62742 0 0 0
173 30.94017 -17.94209 65.86885 0 0 0
174 31.68585 -18.46395 66.20597 0 0 0
175 32.54397 -18.66018 66.60452 0 0 0
176 33.53484 -18.90401 66.56891 0 0 0
177 34.00704 -19.64031 66.76991 0 0 0
178 34.25304 -20.37832 67.24813 0 0 0
179 34.86896 -20.84357 67.90357 0 0 0
180 35.65912 -21.02294 68.45982 0 0 0
181 36.53300 -21.13855 68.05297 0 0 0
182 37.19835 -21.66432 68.51475 0 0 0
183 37.48812 -22.04666 69.33001 0 0 0
184 38.21305 -22.21259 68.71852 0 0 0
185 39.16184 -22.15250 68.65721 0 0 0
186 40.10707 -22.39971 68.59644 0 0 0
187 40.24837 -23.35703 68.70492 0 0 0
188 40.95847 -23.75216 69.39756 0 0 0
189 41.74820 -24.19087 69.82012 0 0 0
190 42.23333 -24.62694 70.55289 0 0 0
191 42.07746 -25.39476 69.91823 0 0 0
192 42.43283 -26.28675 69.78889 0 0 0
193 42.57121 -27.27166 69.79186 0 0 0
194 42.85917 -27.56172 70.66924 0 0 0
195 42.93717 -27.36977 71.61990 0 0 0
196 42.21417 -27.00418 72.15774 0 0 0
197 42.97597 -26.86775 72.78183 0 0 0
198 43.62760 -27.39568 72.44194 0 0 0
199 44.01120 -26.78628 71.79266 0 0 0
ITEM: TIMESTEP
3000
ITEM: NUMBER OF ATOMS
199
ITEM: BOX BOUNDS pp pp pp
-1.0000000000000000e+03 1.0000000000000000e+03
-1.0000000000000000e+03 1.0000000000000000e+03
-1.0000000000000000e+03 1.0000000000000000e+03
ITEM: ATOMS id x y z ix iy iz
1 1.62411 2.36512 7.50561 0 0 0
2 1.28063 1.93453 6.72912 0 0 0
3 1.55673 1.20454 7.36293 0 0 0
4 1.32620 1.05946 8.29541 0 0 0
5 0.62118 1.73917 8.51079 0 0 0
6 0.39037 2.24407 9.33785 0 0 0
7 0.02431 2.00258 10.25217 0 0 0
8 -0.73822 2.51730 10.48193 0 0 0
9 -1.28565 2.28543 11.29273 0 0 0
10 -1.70673 1.95317 12.16414 0 0 0
11 -2.12698 2.01250 13.09642 0 0 0
12 -2.18009 2.47898 13.99535 0 0 0
13 -1.68873 2.82371 14.78442 0 0 0
14 -1.20302 2.34475 15.39443 0 0 0
15 -1.73694 1.55180 15.82196 0 0 0
16 -1.02942 1.29537 16.46952 0 0 0
17 -0.72058 1.46898 17.36145 0 0 0
18 -0.65284 1.64052 18.34924 0 0 0
19 -0.85648 1.28106 19.20326 0 0 0
20 -1.52489 0.71059 19.75629 0 0 0
21 -1.33388 0.87878 20.68528 0 0 0
22 -1.28384 0.97016 21.67613 0 0 0
23 -1.15330 0.90490 22.58627 0 0 0
24 -0.41818 0.24652 22.80747 0 0 0
25 -0.87548 0.57806 23.54353 0 0 0
26 -1.56694 0.17769 24.14958 0 0 0
27 -1.65278 -0.64361 24.72543 0 0 0
28 -1.89586 -1.01122 25.65350 0 0 0
29 -2.10499 -1.13058 26.58425 0 0 0
30 -2.00524 -1.45767 27.52821 0 0 0
31 -2.16712 -1.34526 28.47276 0 0 0
32 -1.35885 -1.03545 28.96550 0 0 0
33 -0.70275 -1.40618 29.66681 0 0 0
34 -0.91485 -1.38577 30.61549 0 0 0
35 -0.27629 -1.49696 31.31080 0 0 0
36 0.19385 -1.03473 32.05391 0 0 0
37 0.69388 -0.86730 32.91377 0 0 0
38 0.51021 -1.19390 33.82977 0 0 0
39 1.01094 -1.09370 34.60776 0 0 0
40 0.53748 -1.28474 35.42556 0 0 0
41 0.71471 -0.75893 36.35933 0 0 0
42 0.83273 -0.47449 37.33731 0 0 0
43 0.79985 -0.11227 38.24931 0 0 0
44 0.57737 0.07312 39.18750 0 0 0
45 0.54983 0.29660 40.17054 0 0 0
46 1.22427 -0.23818 40.56882 0 0 0
47 2.02942 -0.12316 41.09263 0 0 0
48 1.83221 -1.02660 41.25179 0 0 0
49 1.86508 -1.35926 42.21391 0 0 0
50 1.55404 -1.50557 43.13883 0 0 0
51 1.00342 -1.13352 43.88457 0 0 0
52 1.02117 -1.78985 44.65729 0 0 0
53 0.88911 -1.69246 45.61403 0 0 0
54 0.69587 -1.72034 46.55267 0 0 0
55 0.46393 -2.25846 47.49881 0 0 0
56 0.62728 -2.75582 48.37163 0 0 0
57 0.88075 -2.65131 49.32149 0 0 0
58 0.77266 -1.99331 50.16671 0 0 0
59 1.21471 -1.86755 51.04752 0 0 0
60 0.95887 -1.99335 51.97101 0 0 0
61 0.94054 -1.92217 52.97588 0 0 0
62 0.92074 -1.91732 53.91368 0 0 0
63 0.64437 -1.95745 54.91055 0 0 0
64 0.06381 -1.73961 55.65666 0 0 0
65 -0.15176 -1.95837 56.58822 0 0 0
66 -0.04750 -2.49295 57.39169 0 0 0
67 0.27202 -2.25546 58.29107 0 0 0
68 -0.57905 -2.44921 58.74848 0 0 0
69 -1.27393 -3.10831 58.89091 0 0 0
70 -2.10980 -3.56005 59.15757 0 0 0
71 -2.76673 -3.10187 59.78861 0 0 0
72 -2.44429 -2.95409 60.72140 0 0 0
73 -3.39131 -3.26848 60.85130 0 0 0
74 -3.88002 -2.37009 60.92072 0 0 0
75 -4.48134 -1.64874 61.21834 0 0 0
76 -5.07724 -1.43193 61.99993 0 0 0
77 -5.80811 -1.58190 62.57582 0 0 0
78 -6.53142 -1.34781 63.25061 0 0 0
79 -7.37463 -1.44879 63.75117 0 0 0
80 -8.23429 -1.06400 64.08889 0 0 0
81 -9.18686 -1.24828 64.58536 0 0 0
82 -10.01822 -1.00813 64.92238 0 0 0
83 -10.79092 -0.86357 65.54794 0 0 0
84 -11.52751 -0.40832 66.04424 0 0 0
85 -11.97294 -0.18661 66.90342 0 0 0
86 -12.80768 -0.65294 67.16546 0 0 0
87 -13.52884 -0.68153 67.82248 0 0 0
88 -14.32571 -1.27487 68.10511 0 0 0
89 -14.93615 -0.73604 68.59302 0 0 0
90 -15.92663 -0.50314 68.43913 0 0 0
91 -16.52625 -0.06750 69.20053 0 0 0
92 -16.99555 -0.06321 70.05840 0 0 0
93 -17.80675 0.02629 70.59228 0 0 0
94 -18.74012 0.54549 70.65693 0 0 0
95 -19.53969 1.05712 70.99135 0 0 0
96 -20.20314 1.41986 71.55568 0 0 0
97 -21.00883 1.43012 72.14331 0 0 0
98 -21.70248 0.77688 72.20861 0 0 0
99 -22.60161 0.59554 71.94611 0 0 0
100 -23.48902 0.16136 72.20138 0 0 0
101 -24.00046 -0.30459 72.83989 0 0 0
102 -24.62137 -0.42852 73.56761 0 0 0
103 -25.30459 0.11911 74.03321 0 0 0
104 -26.25687 0.45203 74.51306 0 0 0
105 -27.14014 0.09027 74.81681 0 0 0
106 -28.06390 0.18295 75.13907 0 0 0
107 -28.94030 0.32080 74.57312 0 0 0
108 -29.51670 1.11295 74.44403 0 0 0
109 -30.38036 0.88869 74.87931 0 0 0
110 -30.98294 0.80623 75.61277 0 0 0
111 -31.76000 0.18061 75.74590 0 0 0
112 -32.57958 -0.05486 76.22957 0 0 0
113 -33.55023 0.13379 76.32715 0 0 0
114 -34.53037 0.03216 75.99787 0 0 0
115 -35.38080 0.44602 76.09859 0 0 0
116 -36.19520 0.96063 76.24410 0 0 0
117 -36.92745 1.29747 76.68501 0 0 0
118 -37.23158 1.70847 77.49095 0 0 0
119 -37.94357 2.24252 77.81005 0 0 0
120 -38.54127 2.16925 78.55166 0 0 0
121 -39.23207 2.65052 78.98007 0 0 0
122 -40.18263 2.52729 78.82705 0 0 0
123 -40.31883 1.61585 79.12331 0 0 0
124 -39.94004 1.62272 80.05051 0 0 0
125 -40.76615 1.49051 80.53940 0 0 0
126 -40.69866 1.80722 81.49278 0 0 0
127 -40.73818 2.50831 82.14652 0 0 0
128 -41.45993 2.17036 82.74805 0 0 0
129 -42.26460 2.73301 82.99846 0 0 0
130 -42.56751 3.62554 83.20495 0 0 0
131 -42.58705 3.26138 84.16167 0 0 0
132 -43.02906 3.70080 85.02801 0 0 0
133 -44.00371 3.80971 85.49972 0 0 0
134 1.27579 -2.25138 58.74313 0 0 0
135 2.14363 -2.54483 58.99897 0 0 0
136 3.03802 -2.84173 59.02448 0 0 0
137 3.75404 -3.52612 58.99606 0 0 0
138 4.16673 -4.28755 59.54214 0 0 0
139 5.10619 -4.57448 59.84431 0 0 0
140 5.72169 -5.01548 60.55815 0 0 0
141 6.49147 -5.67807 60.63198 0 0 0
142 6.74420 -6.19914 61.41184 0 0 0
143 7.44556 -6.43858 61.99311 0 0 0
144 8.19480 -6.31945 62.61959 0 0 0
145 9.19273 -6.43488 62.76599 0 0 0
146 10.18919 -6.39367 62.80450 0 0 0
147 11.19020 -6.63263 62.91880 0 0 0
148 12.00883 -7.20175 62.65331 0 0 0
149 12.66503 -7.97006 62.68656 0 0 0
150 13.60863 -7.74783 62.58015 0 0 0
151 14.46552 -7.45073 62.99976 0 0 0
152 15.03559 -8.21624 63.40465 0 0 0
153 15.90601 -8.38126 63.03913 0 0 0
154 16.82347 -8.75727 62.82524 0 0 0
155 17.77030 -9.25222 62.88176 0 0 0
156 18.69221 -9.67666 62.84448 0 0 0
157 19.71671 -9.66056 63.14679 0 0 0
158 20.18013 -10.14100 63.98118 0 0 0
159 20.58342 -11.00943 64.33735 0 0 0
160 21.39477 -11.55060 64.50858 0 0 0
161 21.97987 -12.24550 64.75273 0 0 0
162 22.46174 -12.95737 65.12821 0 0 0
163 22.99922 -13.88404 65.24888 0 0 0
164 23.83005 -14.33339 65.49543 0 0 0
165 24.36130 -15.19988 65.28798 0 0 0
166 25.22603 -15.63866 65.15655 0 0 0
167 25.66477 -16.34543 64.68998 0 0 0
168 26.45501 -16.80894 64.27219 0 0 0
169 27.30630 -17.36387 64.16867 0 0 0
170 27.91628 -17.83183 64.89887 0 0 0
171 28.80277 -18.04446 64.54965 0 0 0
172 29.75797 -18.31844 64.46884 0 0 0
173 30.42509 -18.50475 63.86068 0 0 0
174 31.18565 -18.45668 64.50474 0 0 0
175 32.05540 -18.10822 64.80244 0 0 0
176 32.55913 -19.05532 64.90143 0 0 0
177 32.43596 -19.72915 65.53119 0 0 0
178 33.04936 -20.30860 64.97952 0 0 0
179 33.74262 -20.49627 65.65262 0 0 0
180 34.18669 -20.89000 66.43989 0 0 0
181 34.57836 -20.96277 67.34076 0 0 0
182 35.09932 -20.87818 68.17294 0 0 0
183 35.84003 -20.46502 68.63689 0 0 0
184 36.05062 -20.41108 69.64643 0 0 0
185 36.22870 -20.40270 70.62922 0 0 0
186 36.70756 -21.25505 70.86823 0 0 0
187 36.64407 -22.27265 71.25119 0 0 0
188 37.16145 -22.90764 70.53036 0 0 0
189 38.09295 -23.07983 70.62604 0 0 0
190 38.99442 -23.32360 70.49256 0 0 0
191 39.62390 -22.62902 70.85828 0 0 0
192 40.16810 -23.11136 71.57380 0 0 0
193 40.33616 -23.98837 71.22640 0 0 0
194 41.13008 -24.31439 70.70814 0 0 0
195 41.12845 -24.82738 71.52139 0 0 0
196 41.51955 -25.12671 72.43707 0 0 0
197 40.90592 -25.79236 72.82021 0 0 0
198 41.59684 -26.46305 73.02581 0 0 0
199 42.54089 -26.56109 73.23760 0 0 0
ITEM: TIMESTEP
4000
ITEM: NUMBER OF ATOMS
199
ITEM: BOX BOUNDS pp pp pp
-1.0000000000000000e+03 1.0000000000000000e+03