ITEM: TIMESTEP
0
ITEM: NUMBER OF ATOMS
400
ITEM: BOX BOUNDS pp pp pp
-1.0000000000000000e+03 1.0000000000000000e+03
-1.0000000000000000e+03 1.0000000000000000e+03
-1.0000000000000000e+03 1.0000000000000000e+03
ITEM: ATOMS id x y z ix iy iz
1 0.00000 0.00000 0.00000 0 0 0
2 0.00000 0.00000 1.00000 0 0 0
3 0.00000 -0.50000 1.86603 0 0 0
4 0.00000 0.00000 2.73205 0 0 0
5 0.00000 -0.50000 3.59808 0 0 0
6 0.00000 0.00000 4.46410 0 0 0
7 0.00000 -0.50000 5.33013 0 0 0
8 0.00000 0.00000 6.19615 0 0 0
9 0.00000 -0.50000 7.06218 0 0 0
10 0.00000 0.00000 7.92820 0 0 0
11 0.00000 -0.50000 8.79423 0 0 0
12 0.00000 0.00000 9.66025 0 0 0
13 0.00000 -0.50000 10.52628 0 0 0
14 0.00000 0.00000 11.39230 0 0 0
15 0.00000 -0.50000 12.25833 0 0 0
16 0.00000 0.00000 13.12436 0 0 0
17 0.00000 -0.50000 13.99038 0 0 0
18 0.00000 0.00000 14.85641 0 0 0
19 0.00000 -0.50000 15.72243 0 0 0
20 0.00000 0.00000 16.58846 0 0 0
21 0.00000 -0.50000 17.45448 0 0 0
22 0.00000 0.00000 18.32051 0 0 0
23 0.00000 -0.50000 19.18653 0 0 0
24 0.00000 0.00000 20.05256 0 0 0
25 0.00000 -0.50000 20.91858 0 0 0
26 0.00000 0.00000 21.78461 0 0 0
27 0.00000 -0.50000 22.65064 0 0 0
28 0.00000 0.00000 23.51666 0 0 0
29 0.00000 -0.50000 24.38269 0 0 0
30 0.00000 0.00000 25.24871 0 0 0
31 0.00000 -0.50000 26.11474 0 0 0
32 0.00000 0.00000 26.98076 0 0 0
33 0.00000 -0.50000 27.84679 0 0 0
34 0.00000 0.00000 28.71281 0 0 0
35 0.00000 -0.50000 29.57884 0 0 0
36 0.00000 0.00000 30.44486 0 0 0
37 0.00000 -0.50000 31.31089 0 0 0
38 0.00000 0.00000 32.17691 0 0 0
39 0.00000 -0.50000 33.04294 0 0 0
40 0.00000 0.00000 33.90897 0 0 0
41 0.00000 -0.50000 34.77499 0 0 0
42 0.00000 0.00000 35.64102 0 0 0
43 0.00000 -0.50000 36.50704 0 0 0
44 0.00000 0.00000 37.37307 0 0 0
45 0.00000 -0.50000 38.23909 0 0 0
46 0.00000 0.00000 39.10512 0 0 0
47 0.00000 -0.50000 39.97114 0 0 0
48 0.00000 0.00000 40.83717 0 0 0
49 0.00000 -0.50000 41.70319 0 0 0
50 0.00000 0.00000 42.56922 0 0 0
51 0.00000 -0.50000 43.43524 0 0 0
52 0.00000 0.00000 44.30127 0 0 0
53 0.00000 -0.50000 45.16730 0 0 0
54 0.00000 0.00000 46.03332 0 0 0
55 0.00000 -0.50000 46.89935 0 0 0
56 0.00000 0.00000 47.76537 0 0 0
57 0.00000 -0.50000 48.63140 0 0 0
58 0.00000 0.00000 49.49742 0 0 0
59 0.00000 -0.50000 50.36345 0 0 0
60 0.00000 0.00000 51.22947 0 0 0
61 0.00000 -0.50000 52.09550 0 0 0
62 0.00000 0.00000 52.96152 0 0 0
63 0.00000 -0.50000 53.82755 0 0 0
64 0.00000 0.00000 54.69358 0 0 0
65 0.00000 -0.50000 55.55960 0 0 0
66 0.00000 0.00000 56.42563 0 0 0
67 0.00000 -0.50000 57.29165 0 0 0
68 0.00000 0.00000 58.15768 0 0 0
69 0.00000 -0.50000 59.02370 0 0 0
70 0.00000 0.00000 59.88973 0 0 0
71 0.00000 -0.50000 60.75575 0 0 0
72 0.00000 0.00000 61.62178 0 0 0
73 0.00000 -0.50000 62.48780 0 0 0
74 0.00000 0.00000 63.35383 0 0 0
75 0.00000 -0.50000 64.21985 0 0 0
76 0.00000 0.00000 65.08588 0 0 0
77 0.00000 -0.50000 65.95191 0 0 0
78 0.00000 0.00000 66.81793 0 0 0
79 0.00000 -0.50000 67.68396 0 0 0
80 0.00000 0.00000 68.54998 0 0 0
81 0.00000 -0.50000 69.41601 0 0 0
82 0.00000 0.00000 70.28203 0 0 0
83 0.00000 -0.50000 71.14806 0 0 0
84 0.00000 0.00000 72.01408 0 0 0
85 0.00000 -0.50000 72.88011 0 0 0
86 0.00000 0.00000 73.74613 0 0 0
87 0.00000 -0.50000 74.61216 0 0 0
88 0.00000 0.00000 75.47818 0 0 0
89 0.00000 -0.50000 76.34421 0 0 0
90 0.00000 0.00000 77.21024 0 0 0
91 0.00000 -0.50000 78.07626 0 0 0
92 0.00000 0.00000 78.94229 0 0 0
93 0.00000 -0.50000 79.80831 0 0 0
94 0.00000 0.00000 80.67434 0 0 0
95 0.00000 -0.50000 81.54036 0 0 0
96 0.00000 0.00000 82.40639 0 0 0
97 0.00000 -0.50000 83.27241 0 0 0
98 0.00000 0.00000 84.13844 0 0 0
99 0.00000 -0.50000 85.00446 0 0 0
100 0.00000 0.00000 85.87049 0 0 0
101 0.00000 -0.50000 86.73651 0 0 0
102 0.00000 0.00000 87.60254 0 0 0
103 0.00000 -0.50000 88.46857 0 0 0
104 0.00000 0.00000 89.33459 0 0 0
105 0.00000 -0.50000 90.20062 0 0 0
106 0.00000 0.00000 91.06664 0 0 0
107 0.00000 -0.50000 91.93267 0 0 0
108 0.00000 0.00000 92.79869 0 0 0
109 0.00000 -0.50000 93.66472 0 0 0
110 0.00000 0.00000 94.53074 0 0 0
111 0.00000 -0.50000 95.39677 0 0 0
112 0.00000 0.00000 96.26279 0 0 0
113 0.00000 -0.50000 97.12882 0 0 0
114 0.00000 0.00000 97.99485 0 0 0
115 0.00000 -0.50000 98.86087 0 0 0
116 0.00000 0.00000 99.72690 0 0 0
117 0.00000 -0.50000 100.59292 0 0 0
118 0.00000 0.00000 101.45895 0 0 0
119 0.00000 -0.50000 102.32497 0 0 0
120 0.00000 0.00000 103.19100 0 0 0
121 0.00000 -0.50000 104.05702 0 0 0
122 0.00000 0.00000 104.92305 0 0 0
123 0.00000 -0.50000 105.78907 0 0 0
124 0.00000 0.00000 106.65510 0 0 0
125 0.00000 -0.50000 107.52112 0 0 0
126 0.00000 0.00000 108.38715 0 0 0
127 0.00000 -0.50000 109.25318 0 0 0
128 0.00000 0.00000 110.11920 0 0 0
129 0.00000 -0.50000 110.98523 0 0 0
130 0.00000 0.00000 111.85125 0 0 0
131 0.00000 -0.50000 112.71728 0 0 0
132 0.00000 0.00000 113.58330 0 0 0
133 0.00000 -0.50000 114.44933 0 0 0
134 0.00000 0.00000 115.31535 0 0 0
135 0.27297 -0.46177 116.15931 0 0 0
136 0.54595 -1.28365 116.65931 0 0 0
137 0.81892 -1.26157 117.62107 0 0 0
138 1.09189 -2.08345 118.12107 0 0 0
139 1.36487 -2.06138 119.08284 0 0 0
140 1.63784 -2.88326 119.58284 0 0 0
141 1.91081 -2.86119 120.54461 0 0 0
142 2.18379 -3.68307 121.04461 0 0 0
143 2.45676 -3.66099 122.00638 0 0 0
144 2.72974 -4.48287 122.50638 0 0 0
145 3.00271 -4.46080 123.46815 0 0 0
146 3.27568 -5.28268 123.96815 0 0 0
147 3.54866 -5.26060 124.92992 0 0 0
148 3.82163 -6.08248 125.42992 0 0 0
149 4.09460 -6.06041 126.39168 0 0 0
150 4.36758 -6.88229 126.89168 0 0 0
151 4.64055 -6.86022 127.85345 0 0 0
152 4.91352 -7.68210 128.35345 0 0 0
153 5.18650 -7.66002 129.31522 0 0 0
154 5.45947 -8.48190 129.81522 0 0 0
155 5.73244 -8.45983 130.77699 0 0 0
156 6.00542 -9.28171 131.27699 0 0 0
157 6.27839 -9.25964 132.23876 0 0 0
158 6.55137 -10.08151 132.73876 0 0 0
159 6.82434 -10.05944 133.70052 0 0 0
160 7.09731 -10.88132 134.20052 0 0 0
161 7.37029 -10.85925 135.16229 0 0 0
162 7.64326 -11.68113 135.66229 0 0 0
163 7.91623 -11.65905 136.62406 0 0 0
164 8.18921 -12.48093 137.12406 0 0 0
165 8.46218 -12.45886 138.08583 0 0 0
166 8.73515 -13.28074 138.58583 0 0 0
167 9.00813 -13.25867 139.54760 0 0 0
168 9.28110 -14.08055 140.04760 0 0 0
169 9.55407 -14.05847 141.00937 0 0 0
170 9.82705 -14.88035 141.50937 0 0 0
171 10.10002 -14.85828 142.47113 0 0 0
172 10.37299 -15.68016 142.97113 0 0 0
173 10.64597 -15.65808 143.93290 0 0 0
174 10.91894 -16.47996 144.43290 0 0 0
175 11.19192 -16.45789 145.39467 0 0 0
176 11.46489 -17.27977 145.89467 0 0 0
177 11.73786 -17.25770 146.85644 0 0 0
178 12.01084 -18.07958 147.35644 0 0 0
179 12.28381 -18.05750 148.31821 0 0 0
180 12.55678 -18.87938 148.81821 0 0 0
181 12.82976 -18.85731 149.77998 0 0 0
182 13.10273 -19.67919 150.27998 0 0 0
183 13.37570 -19.65712 151.24174 0 0 0
184 13.64868 -20.47899 151.74174 0 0 0
185 13.92165 -20.45692 152.70351 0 0 0
186 14.19462 -21.27880 153.20351 0 0 0
187 14.46760 -21.25673 154.16528 0 0 0
188 14.74057 -22.07861 154.66528 0 0 0
189 15.01355 -22.05653 155.62705 0 0 0
190 15.28652 -22.87841 156.12705 0 0 0
191 15.55949 -22.85634 157.08882 0 0 0
192 15.83247 -23.67822 157.58882 0 0 0
193 16.10544 -23.65615 158.55059 0 0 0
194 16.37841 -24.47802 159.05059 0 0 0
195 16.65139 -24.45595 160.01235 0 0 0
196 16.92436 -25.27783 160.51235 0 0 0
197 17.19733 -25.25576 161.47412 0 0 0
198 17.47031 -26.07764 161.97412 0 0 0
199 17.74328 -26.05556 162.93589 0 0 0
200 18.01625 -26.87744 163.43589 0 0 0
201 18.28923 -26.85537 164.39766 0 0 0
202 18.56220 -27.67725 164.89766 0 0 0
203 18.83517 -27.65518 165.85943 0 0 0
204 19.10815 -28.47706 166.35943 0 0 0
205 19.38112 -28.45498 167.32120 0 0 0
206 19.65410 -29.27686 167.82120 0 0 0
207 19.92707 -29.25479 168.78296 0 0 0
208 20.20004 -30.07667 169.28296 0 0 0
209 20.47302 -30.05459 170.24473 0 0 0
210 20.74599 -30.87647 170.74473 0 0 0
211 21.01896 -30.85440 171.70650 0 0 0
212 21.29194 -31.67628 172.20650 0 0 0
213 21.56491 -31.65421 173.16827 0 0 0
214 21.83788 -32.47609 173.66827 0 0 0
215 22.11086 -32.45401 174.63004 0 0 0
216 22.38383 -33.27589 175.13004 0 0 0
217 22.65680 -33.25382 176.09181 0 0 0
218 22.92978 -34.07570 176.59181 0 0 0
219 23.20275 -34.05363 177.55357 0 0 0
220 23.47573 -34.87550 178.05357 0 0 0
221 23.74870 -34.85343 179.01534 0 0 0
222 24.02167 -35.67531 179.51534 0 0 0
223 24.29465 -35.65324 180.47711 0 0 0
224 24.56762 -36.47512 180.97711 0 0 0
225 24.84059 -36.45304 181.93888 0 0 0
226 25.11357 -37.27492 182.43888 0 0 0
227 25.38654 -37.25285 183.40065 0 0 0
228 25.65951 -38.07473 183.90065 0 0 0
229 25.93249 -38.05266 184.86241 0 0 0
230 26.20546 -38.87454 185.36241 0 0 0
231 26.47843 -38.85246 186.32418 0 0 0
232 26.75141 -39.67434 186.82418 0 0 0
233 27.02438 -39.65227 187.78595 0 0 0
234 27.29735 -40.47415 188.28595 0 0 0
235 27.57033 -40.45207 189.24772 0 0 0
236 27.84330 -41.27395 189.74772 0 0 0
237 28.11628 -41.25188 190.70949 0 0 0
238 28.38925 -42.07376 191.20949 0 0 0
239 28.66222 -42.05169 192.17126 0 0 0
240 28.93520 -42.87357 192.67126 0 0 0
241 29.20817 -42.85149 193.63302 0 0 0
242 29.48114 -43.67337 194.13302 0 0 0
243 29.75412 -43.65130 195.09479 0 0 0
244 30.02709 -44.47318 195.59479 0 0 0
245 30.30006 -44.45110 196.55656 0 0 0
246 30.57304 -45.27298 197.05656 0 0 0
247 30.84601 -45.25091 198.01833 0 0 0
248 31.11898 -46.07279 198.51833 0 0 0
249 31.39196 -46.05072 199.48010 0 0 0
250 31.66493 -46.87260 199.98010 0 0 0
251 31.93791 -46.85052 200.94187 0 0 0
252 32.21088 -47.67240 201.44187 0 0 0
253 32.48385 -47.65033 202.40363 0 0 0
254 32.75683 -48.47221 202.90363 0 0 0
255 33.02980 -48.45014 203.86540 0 0 0
256 33.30277 -49.27201 204.36540 0 0 0
257 33.57575 -49.24994 205.32717 0 0 0
258 33.84872 -50.07182 205.82717 0 0 0
259 34.12169 -50.04975 206.78894 0 0 0
260 34.39467 -50.87163 207.28894 0 0 0
261 34.66764 -50.84955 208.25071 0 0 0
262 34.94061 -51.67143 208.75071 0 0 0
263 35.21359 -51.64936 209.71248 0 0 0
264 35.48656 -52.47124 210.21248 0 0 0
265 35.75953 -52.44917 211.17424 0 0 0
266 36.03251 -53.27105 211.67424 0 0 0
267 36.30548 -53.24897 212.63601 0 0 0
268 -0.27297 0.96177 115.33743 0 0 0
269 -0.54595 1.78365 115.83743 0 0 0
270 -0.81892 2.62760 115.37566 0 0 0
271 -1.09189 3.44948 115.87566 0 0 0
272 -1.36487 4.29343 115.41389 0 0 0
273 -1.63784 5.11531 115.91389 0 0 0
274 -1.91081 5.95926 115.45212 0 0 0
275 -2.18379 6.78114 115.95212 0 0 0
276 -2.45676 7.62509 115.49035 0 0 0
277 -2.72974 8.44697 115.99035 0 0 0
278 -3.00271 9.29093 115.52859 0 0 0
279 -3.27568 10.11281 116.02859 0 0 0
280 -3.54866 10.95676 115.56682 0 0 0
281 -3.82163 11.77864 116.06682 0 0 0
282 -4.09460 12.62259 115.60505 0 0 0
283 -4.36758 13.44447 116.10505 0 0 0
284 -4.64055 14.28842 115.64328 0 0 0
285 -4.91352 15.11030 116.14328 0 0 0
286 -5.18650 15.95425 115.68151 0 0 0
287 -5.45947 16.77613 116.18151 0 0 0
288 -5.73244 17.62008 115.71974 0 0 0
289 -6.00542 18.44196 116.21974 0 0 0
290 -6.27839 19.28592 115.75798 0 0 0
291 -6.55137 20.10779 116.25798 0 0 0
292 -6.82434 20.95175 115.79621 0 0 0
293 -7.09731 21.77363 116.29621 0 0 0
294 -7.37029 22.61758 115.83444 0 0 0
295 -7.64326 23.43946 116.33444 0 0 0
296 -7.91623 24.28341 115.87267 0 0 0
297 -8.18921 25.10529 116.37267 0 0 0
298 -8.46218 25.94924 115.91090 0 0 0
299 -8.73515 26.77112 116.41090 0 0 0
300 -9.00813 27.61507 115.94913 0 0 0
301 -9.28110 28.43695 116.44913 0 0 0
302 -9.55407 29.28090 115.98737 0 0 0
303 -9.82705 30.10278 116.48737 0 0 0
304 -10.10002 30.94674 116.02560 0 0 0
305 -10.37299 31.76861 116.52560 0 0 0
306 -10.64597 32.61257 116.06383 0 0 0
307 -10.91894 33.43445 116.56383 0 0 0
308 -11.19192 34.27840 116.10206 0 0 0
309 -11.46489 35.10028 116.60206 0 0 0
310 -11.73786 35.94423 116.14029 0 0 0
311 -12.01084 36.76611 116.64029 0 0 0
312 -12.28381 37.61006 116.17852 0 0 0
313 -12.55678 38.43194 116.67852 0 0 0
314 -12.82976 39.27589 116.21676 0 0 0
315 -13.10273 40.09777 116.71676 0 0 0
316 -13.37570 40.94172 116.25499 0 0 0
317 -13.64868 41.76360 116.75499 0 0 0
318 -13.92165 42.60756 116.29322 0 0 0
319 -14.19462 43.42944 116.79322 0 0 0
320 -14.46760 44.27339 116.33145 0 0 0
321 -14.74057 45.09527 116.83145 0 0 0
322 -15.01355 45.93922 116.36968 0 0 0
323 -15.28652 46.76110 116.86968 0 0 0
324 -15.55949 47.60505 116.40791 0 0 0
325 -15.83247 48.42693 116.90791 0 0 0
326 -16.10544 49.27088 116.44615 0 0 0
327 -16.37841 50.09276 116.94615 0 0 0
328 -16.65139 50.93671 116.48438 0 0 0
329 -16.92436 51.75859 116.98438 0 0 0
330 -17.19733 52.60255 116.52261 0 0 0
331 -17.47031 53.42442 117.02261 0 0 0
332 -17.74328 54.26838 116.56084 0 0 0
333 -18.01625 55.09026 117.06084 0 0 0
334 -18.28923 55.93421 116.59907 0 0 0
335 -18.56220 56.75609 117.09907 0 0 0
336 -18.83517 57.60004 116.63730 0 0 0
337 -19.10815 58.42192 117.13730 0 0 0
338 -19.38112 59.26587 116.67554 0 0 0
339 -19.65410 60.08775 117.17554 0 0 0
340 -19.92707 60.93170 116.71377 0 0 0
341 -20.20004 61.75358 117.21377 0 0 0
342 -20.47302 62.59753 116.75200 0 0 0
343 -20.74599 63.41941 117.25200 0 0 0
344 -21.01896 64.26337 116.79023 0 0 0
345 -21.29194 65.08525 117.29023 0 0 0
346 -21.56491 65.92920 116.82846 0 0 0
347 -21.83788 66.75108 117.32846 0 0 0
348 -22.11086 67.59503 116.86670 0 0 0
349 -22.38383 68.41691 117.36670 0 0 0
350 -22.65680 69.26086 116.90493 0 0 0
351 -22.92978 70.08274 117.40493 0 0 0
352 -23.20275 70.92669 116.94316 0 0 0
353 -23.47573 71.74857 117.44316 0 0 0
354 -23.74870 72.59252 116.98139 0 0 0
355 -24.02167 73.41440 117.48139 0 0 0
356 -24.29465 74.25836 117.01962 0 0 0
357 -24.56762 75.08023 117.51962 0 0 0
358 -24.84059 75.92419 117.05785 0 0 0
359 -25.11357 76.74607 117.55785 0 0 0
360 -25.38654 77.59002 117.09609 0 0 0
361 -25.65951 78.41190 117.59609 0 0 0
362 -25.93249 79.25585 117.13432 0 0 0
363 -26.20546 80.07773 117.63432 0 0 0
364 -26.47843 80.92168 117.17255 0 0 0
365 -26.75141 81.74356 117.67255 0 0 0
366 -27.02438 82.58751 117.21078 0 0 0
367 -27.29735 83.40939 117.71078 0 0 0
368 -27.57033 84.25334 117.24901 0 0 0
369 -27.84330 85.07522 117.74901 0 0 0
370 -28.11628 85.91918 117.28724 0 0 0
371 -28.38925 86.74106 117.78724 0 0 0
372 -28.66222 87.58501 117.32548 0 0 0
373 -28.93520 88.40689 117.82548 0 0 0
374 -29.20817 89.25084 117.36371 0 0 0
375 -29.48114 90.07272 117.86371 0 0 0
376 -29.75412 90.91667 117.40194 0 0 0
377 -30.02709 91.73855 117.90194 0 0 0
378 -30.30006 92.58250 117.44017 0 0 0
379 -30.57304 93.40438 117.94017 0 0 0
380 -30.84601 94.24833 117.47840 0 0 0
381 -31.11898 95.07021 117.97840 0 0 0
382 -31.39196 95.91417 117.51663 0 0 0
383 -31.66493 96.73604 118.01663 0 0 0
384 -31.93791 97.58000 117.55487 0 0 0
385 -32.21088 98.40188 118.05487 0 0 0
386 -32.48385 99.24583 117.59310 0 0 0
387 -32.75683 100.06771 118.09310 0 0 0
388 -33.02980 100.91166 117.63133 0 0 0
389 -33.30277 101.73354 118.13133 0 0 0
390 -33.57575 102.57749 117.66956 0 0 0
391 -33.84872 103.39937 118.16956 0 0 0
392 -34.12169 104.24332 117.70779 0 0 0
393 -34.39467 105.06520 118.20779 0 0 0
394 -34.66764 105.90915 117.74602 0 0 0
395 -34.94061 106.73103 118.24602 0 0 0
396 -35.21359 107.57499 117.78426 0 0 0
397 -35.48656 108.39686 118.28426 0 0 0
398 -35.75953 109.24082 117.82249 0 0 0
399 -36.03251 110.06270 118.32249 0 0 0
400 -36.30548 110.90665 117.86072 0 0 0
ITEM: TIMESTEP
1000
ITEM: NUMBER OF ATOMS
400
ITEM: BOX BOUNDS pp pp pp
-1.0000000000000000e+03 1.0000000000000000e+03
-1.0000000000000000e+03 1.0000000000000000e+03
-1.0000000000000000e+03 1.0000000000000000e+03
ITEM: ATOMS id x y z ix iy iz
1 -1.72495 0.32768 6.25356 0 0 0
2 -1.44647 -0.55255 6.61089 0 0 0
3 -0.79467 -1.13581 7.04532 0 0 0
4 0.01818 -1.46082 7.46287 0 0 0
5 0.98669 -1.31511 7.37681 0 0 0
6 1.88170 -1.40576 7.52895 0 0 0
7 1.43337 -2.33504 7.76464 0 0 0
8 0.73869 -2.60433 8.44831 0 0 0
9 0.48168 -2.12981 9.25784 0 0 0
10 -0.11076 -1.93347 10.05619 0 0 0
11 -0.41291 -1.44403 10.87617 0 0 0
12 0.42721 -1.08034 11.08676 0 0 0
13 0.30856 -1.05182 11.99587 0 0 0
14 1.15598 -1.47032 12.44563 0 0 0
15 1.22313 -1.84154 13.31286 0 0 0
16 1.10900 -2.37257 14.13528 0 0 0
17 0.74766 -2.58293 15.18350 0 0 0
18 0.32234 -2.44618 16.08430 0 0 0
19 -0.05840 -2.02268 16.88101 0 0 0
20 -0.51707 -1.49591 17.45898 0 0 0
21 -0.30575 -1.02802 18.30993 0 0 0
22 -1.12085 -1.44492 18.70020 0 0 0
23 -0.43469 -1.33140 19.33964 0 0 0
24 -1.11537 -1.47404 20.01009 0 0 0
25 -0.73556 -1.47931 20.96236 0 0 0
26 -0.56305 -1.67135 21.89848 0 0 0
27 -0.72986 -1.41392 22.76685 0 0 0
28 -0.52970 -1.54684 23.70040 0 0 0
29 -1.03361 -2.08851 24.32270 0 0 0
30 -1.34317 -1.62140 25.20426 0 0 0
31 -1.16559 -1.37374 26.14293 0 0 0
32 -0.71516 -1.96165 26.90200 0 0 0
33 -0.07762 -1.99514 27.70857 0 0 0
34 -0.37873 -2.24459 28.60142 0 0 0
35 -0.20423 -2.80827 29.43924 0 0 0
36 0.60658 -2.35762 29.90320 0 0 0
37 0.32067 -1.93617 30.75485 0 0 0
38 -0.09682 -1.73354 31.67380 0 0 0
39 0.28712 -1.65761 32.62952 0 0 0
40 0.72397 -1.53579 33.56570 0 0 0
41 1.29882 -1.49978 34.31186 0 0 0
42 1.35280 -0.90958 35.07083 0 0 0
43 0.65270 -0.17171 34.94881 0 0 0
44 0.91064 -0.00109 35.90265 0 0 0
45 0.51562 0.19230 36.80462 0 0 0
46 0.83427 0.75410 37.55907 0 0 0
47 1.17453 0.89816 38.49856 0 0 0
48 1.81371 1.18687 39.23625 0 0 0
49 1.83200 1.56857 40.14264 0 0 0
50 1.74588 1.42352 41.11117 0 0 0
51 1.09516 1.36696 41.86148 0 0 0
52 0.50186 1.04313 42.61454 0 0 0
53 0.17503 0.88418 43.51891 0 0 0
54 0.44014 0.22248 44.35631 0 0 0
55 0.40439 -0.01664 45.22323 0 0 0
56 0.39698 0.26622 46.14212 0 0 0
57 0.56165 0.30505 47.11374 0 0 0
58 0.35940 0.41979 48.06302 0 0 0
59 0.37692 0.18171 49.11355 0 0 0
60 0.42032 0.06912 50.10433 0 0 0
61 0.65342 0.26095 51.00947 0 0 0
62 0.55340 0.19517 52.03070 0 0 0
63 0.40684 0.55673 52.96194 0 0 0
64 0.83344 0.30458 53.84781 0 0 0
65 0.82919 0.01676 54.80373 0 0 0
66 0.70783 -0.32044 55.71289 0 0 0
67 0.64377 -0.31538 56.71419 0 0 0
68 0.85152 -0.00069 57.63920 0 0 0
69 1.11534 -0.28168 58.49250 0 0 0
70 0.77211 -0.40566 59.40815 0 0 0
71 0.84071 -0.69237 60.32324 0 0 0
72 0.76309 -0.87470 61.34563 0 0 0
73 0.62298 -0.06974 62.02178 0 0 0
74 0.83446 -0.08881 62.99980 0 0 0
75 0.69581 -0.98534 63.62861 0 0 0
76 0.38308 -0.41149 64.30736 0 0 0
77 -0.15214 -0.23572 65.15016 0 0 0
78 -0.15138 -0.15298 66.14562 0 0 0
79 -0.41274 -0.06619 67.12995 0 0 0
80 -0.29451 -0.23959 68.11984 0 0 0
81 0.22244 -0.30862 68.90734 0 0 0
82 0.66885 -1.00321 69.50385 0 0 0
83 0.59714 -1.19504 70.44605 0 0 0
84 0.64130 -1.22901 71.43738 0 0 0
85 0.99259 -1.09680 72.40467 0 0 0
86 0.76730 -0.75098 73.21173 0 0 0
87 0.26663 -0.51917 73.98874 0 0 0
88 0.09106 0.02611 74.78642 0 0 0
89 0.09718 0.13165 75.75784 0 0 0
90 0.32113 -0.21886 76.69562 0 0 0
91 0.34696 -0.07277 77.62830 0 0 0
92 -0.02436 0.11681 78.77672 0 0 0
93 0.16426 0.69107 79.59274 0 0 0
94 0.08630 0.42967 80.63154 0 0 0
95 -0.49161 -0.03596 81.22320 0 0 0
96 -0.80034 -0.41871 82.10310 0 0 0
97 -0.78142 -0.57717 83.09842 0 0 0
98 -0.79527 -0.01285 83.93025 0 0 0
99 -0.17689 0.13612 84.68701 0 0 0
100 -0.31727 0.50842 85.63145 0 0 0
101 -0.05848 0.21619 86.51958 0 0 0
102 0.46013 0.02294 87.29242 0 0 0
103 0.36422 0.12612 88.47362 0 0 0
104 0.01151 -0.70937 88.83185 0 0 0
105 -0.39598 -0.79192 89.69150 0 0 0
106 -1.23538 -0.57898 90.25578 0 0 0
107 -0.95372 -0.19854 91.17449 0 0 0
108 -1.44564 0.38456 91.83135 0 0 0
109 -1.68599 0.55168 92.74248 0 0 0
110 -2.13480 1.01537 93.47026 0 0 0
111 -2.04089 1.07915 94.49308 0 0 0
112 -2.09783 1.21888 95.56635 0 0 0
113 -2.00312 0.79886 96.45129 0 0 0
114 -1.81955 1.01078 97.46872 0 0 0
115 -1.38599 0.86414 98.36112 0 0 0
116 -1.27675 0.97835 99.28141 0 0 0
117 -0.79109 1.04234 100.13671 0 0 0
118 -0.47117 0.80478 101.11828 0 0 0
119 0.18322 0.65570 101.92285 0 0 0
120 -0.13257 0.61554 102.86616 0 0 0
121 0.08094 0.86659 103.72750 0 0 0
122 0.11397 0.69997 104.67557 0 0 0
123 -0.38409 0.27636 105.43846 0 0 0
124 0.29665 0.17084 106.23685 0 0 0
125 0.52533 0.03932 107.17989 0 0 0
126 0.82005 -0.52677 107.92700 0 0 0
127 1.49454 -0.75113 108.50018 0 0 0
128 1.31921 -0.62432 109.47258 0 0 0
129 0.97408 -0.21548 110.30942 0 0 0
130 0.77428 -0.40436 111.26468 0 0 0
131 0.72667 0.44142 111.78204 0 0 0
132 1.01892 0.92234 112.59699 0 0 0
133 1.03107 1.04609 113.53332 0 0 0
134 0.73798 1.53683 114.36533 0 0 0
135 0.89561 0.96144 115.09838 0 0 0
136 1.42826 0.37823 115.66869 0 0 0
137 1.44246 -0.61922 115.99705 0 0 0
138 1.34539 -1.32083 116.80950 0 0 0
139 1.51080 -1.69735 117.75044 0 0 0
140 1.94917 -1.92452 118.70895 0 0 0
141 1.95167 -2.68545 119.32424 0 0 0
142 2.43773 -2.87477 120.21068 0 0 0
143 2.82812 -3.42414 120.90609 0 0 0
144 2.94213 -3.48014 121.83541 0 0 0
145 2.90720 -4.52558 122.25235 0 0 0
146 3.05387 -4.69077 123.23039 0 0 0
147 3.00999 -5.25758 124.09547 0 0 0
148 3.61607 -5.80980 124.62752 0 0 0
149 3.85135 -6.55001 125.27923 0 0 0
150 4.00035 -6.89120 126.22441 0 0 0
151 4.02506 -7.54305 127.05473 0 0 0
152 3.86693 -8.07247 127.98865 0 0 0
153 4.28237 -7.98832 128.87577 0 0 0
154 4.86451 -7.82824 129.62860 0 0 0
155 4.87948 -8.38024 130.35152 0 0 0
156 5.07704 -8.74363 131.28999 0 0 0
157 5.37910 -9.26132 132.11461 0 0 0
158 6.07836 -9.79045 132.67390 0 0 0
159 6.35062 -10.20619 133.48591 0 0 0
160 6.60835 -10.64854 134.25177 0 0 0
161 7.22593 -11.30326 134.70152 0 0 0
162 7.52961 -12.16456 135.02211 0 0 0
163 7.98812 -12.13350 135.94448 0 0 0
164 8.73306 -12.46609 136.50330 0 0 0
165 8.85418 -12.31391 137.45363 0 0 0
166 9.04985 -12.57834 138.44715 0 0 0
167 9.05342 -13.30274 139.12391 0 0 0
168 9.42201 -13.66924 139.92708 0 0 0
169 9.42044 -14.12148 140.85315 0 0 0
170 9.02996 -14.15963 141.80224 0 0 0
171 9.80065 -14.63988 142.30742 0 0 0
172 10.11916 -14.54359 143.20935 0 0 0
173 10.84404 -14.91333 143.87671 0 0 0
174 10.95739 -15.52109 144.58179 0 0 0
175 11.72899 -15.69386 145.30740 0 0 0
176 12.16962 -16.09073 146.22739 0 0 0
177 12.16742 -16.85890 146.93831 0 0 0
178 12.82926 -17.20367 147.58634 0 0 0
179 13.31698 -17.70240 148.21399 0 0 0
180 13.23942 -18.22762 149.08023 0 0 0
181 13.47210 -18.83506 150.02365 0 0 0
182 12.77564 -19.35084 150.53547 0 0 0
183 12.85720 -19.50423 151.47959 0 0 0
184 13.55524 -19.72420 152.14392 0 0 0
185 13.20572 -19.93105 153.05247 0 0 0
186 13.03814 -20.32213 153.90298 0 0 0
187 13.26458 -21.15044 154.44602 0 0 0
188 13.91331 -21.23981 155.14395 0 0 0
189 14.69231 -21.60375 155.86130 0 0 0
190 15.29618 -22.09681 156.43906 0 0 0
191 15.43052 -22.67103 157.21898 0 0 0
192 16.21770 -22.74935 157.74765 0 0 0
193 16.71010 -23.02263 158.54531 0 0 0
194 17.06360 -23.49585 159.37991 0 0 0
195 16.90354 -24.04922 160.20926 0 0 0
196 17.21766 -24.49350 161.00577 0 0 0
197 17.41585 -24.79682 161.92051 0 0 0
198 17.86874 -25.54986 162.38215 0 0 0
199 18.25166 -26.26553 162.95632 0 0 0
200 18.26947 -27.08715 163.54630 0 0 0
201 18.48068 -27.94060 163.87102 0 0 0
202 19.03928 -28.37539 164.57974 0 0 0
203 19.57156 -28.46350 165.34467 0 0 0
204 19.94711 -28.85829 166.11132 0 0 0
205 19.99212 -29.32226 167.04405 0 0 0
206 19.96645 -29.55595 168.03884 0 0 0
207 20.48418 -30.28566 168.76109 0 0 0
208 20.91620 -30.94125 169.28893 0 0 0
209 21.11000 -31.58111 170.00078 0 0 0
210 20.77731 -31.47584 170.96358 0 0 0
211 20.67949 -32.11687 171.68623 0 0 0
212 20.80757 -32.58645 172.53029 0 0 0
213 20.66622 -32.58148 173.55051 0 0 0
214 21.00485 -32.74052 174.52541 0 0 0
215 21.86938 -32.93246 175.09045 0 0 0
216 22.08361 -32.80231 176.07238 0 0 0
217 22.69135 -33.05837 176.76145 0 0 0
218 22.59134 -33.68442 177.41982 0 0 0
219 23.02941 -33.98012 178.23953 0 0 0
220 23.52224 -34.59637 178.89763 0 0 0
221 24.06994 -34.62195 179.75224 0 0 0
222 24.23575 -34.83197 180.71244 0 0 0
223 24.87695 -35.49720 181.16753 0 0 0
224 24.88072 -36.11801 181.92680 0 0 0
225 25.17485 -36.72784 182.62301 0 0 0
226 25.70950 -36.93612 183.41847 0 0 0
227 25.90795 -36.97606 184.42689 0 0 0
228 26.52214 -37.51248 184.94329 0 0 0
229 27.29765 -37.75209 185.51466 0 0 0
230 27.58460 -38.27371 186.22375 0 0 0
231 27.44061 -38.82185 187.03038 0 0 0
232 28.22847 -39.32189 187.48608 0 0 0
233 28.92918 -39.22776 188.20134 0 0 0
234 28.46909 -39.53587 189.05997 0 0 0
235 28.60873 -39.73159 190.05034 0 0 0
236 28.95362 -40.38254 190.67143 0 0 0
237 29.30749 -40.68846 191.47272 0 0 0
238 29.81687 -41.25874 192.07680 0 0 0
239 30.24975 -42.04662 192.52590 0 0 0
240 30.31807 -42.75723 193.17372 0 0 0
241 30.80312 -43.58835 193.56486 0 0 0
242 30.75872 -44.18611 194.33920 0 0 0
243 30.73543 -45.03403 194.83003 0 0 0
244 30.67473 -45.77028 195.44961 0 0 0
245 30.28411 -45.96080 196.35509 0 0 0
246 30.50618 -46.26426 197.23996 0 0 0
247 30.45275 -46.04104 198.19430 0 0 0
248 30.42663 -46.18906 199.15255 0 0 0
249 30.99912 -45.87725 199.85768 0 0 0
250 31.42696 -46.35720 200.52370 0 0 0
251 31.71450 -46.59849 201.41825 0 0 0
252 32.25137 -47.06430 202.08646 0 0 0
253 32.26551 -47.23568 203.01631 0 0 0
254 32.86094 -48.06677 203.29048 0 0 0
255 33.17081 -49.04070 203.46113 0 0 0
256 33.05142 -49.53656 204.27294 0 0 0
257 33.83483 -49.83298 204.74346 0 0 0
258 34.43303 -49.69402 205.52587 0 0 0
259 34.82187 -50.51519 205.94774 0 0 0
260 34.63686 -51.12175 206.75155 0 0 0
261 34.37054 -51.80243 207.44362 0 0 0
262 34.62526 -52.72476 207.73575 0 0 0
263 34.73123 -53.40354 208.38742 0 0 0
264 34.95402 -52.92659 209.18534 0 0 0
265 35.07758 -52.89864 210.13120 0 0 0
266 35.40669 -52.56054 210.96963 0 0 0
267 36.15207 -52.01823 210.51557 0 0 0
268 0.42736 2.43735 114.47305 0 0 0
269 0.36098 3.37920 114.18830 0 0 0
270 -0.18680 4.11542 113.96006 0 0 0
271 -0.34869 5.03604 114.28213 0 0 0
272 -0.93649 5.90741 114.40539 0 0 0
273 -1.45520 6.71245 114.42678 0 0 0
274 -1.75071 7.58175 114.74406 0 0 0
275 -1.71714 8.52577 114.79313 0 0 0
276 -1.11378 9.38384 114.81311 0 0 0
277 -1.10485 10.34264 114.96650 0 0 0
278 -1.46143 11.31446 114.91379 0 0 0
279 -1.76340 12.16691 114.52723 0 0 0
280 -2.59877 12.49467 114.90725 0 0 0
281 -3.10250 13.22737 115.06797 0 0 0
282 -3.39500 14.11547 115.23773 0 0 0
283 -3.52034 15.11177 115.22961 0 0 0
284 -4.39078 15.35921 115.62806 0 0 0
285 -4.79375 16.10310 116.26255 0 0 0
286 -5.31748 16.91116 116.40037 0 0 0
287 -6.20440 17.37501 116.71916 0 0 0
288 -6.57734 18.19898 116.44216 0 0 0
289 -6.85484 19.15260 116.60473 0 0 0
290 -7.58222 19.70095 117.13358 0 0 0
291 -6.96351 20.33049 116.80465 0 0 0
292 -6.55335 21.25612 116.77326 0 0 0
293 -6.53054 22.22639 116.80902 0 0 0
294 -6.99008 23.18559 116.61473 0 0 0
295 -7.30521 24.04048 117.02871 0 0 0
296 -7.75356 24.71730 117.59943 0 0 0
297 -7.47087 25.59321 117.38505 0 0 0
298 -7.21250 26.49102 117.37460 0 0 0
299 -7.79568 27.28779 117.14052 0 0 0
300 -7.90129 28.05193 116.64529 0 0 0
301 -8.61472 28.76676 116.67189 0 0 0
302 -8.55368 29.55417 117.33645 0 0 0
303 -9.22187 30.36609 117.22205 0 0 0
304 -8.93638 31.28032 117.49940 0 0 0
305 -9.34320 32.07874 117.14147 0 0 0
306 -9.65668 32.86799 116.60433 0 0 0
307 -9.85393 33.83718 116.63496 0 0 0
308 -10.08776 34.70427 116.98777 0 0 0
309 -10.55320 35.53573 116.90124 0 0 0
310 -11.04492 36.25333 116.48950 0 0 0
311 -11.60249 37.05326 116.06466 0 0 0
312 -11.74698 38.09252 115.79662 0 0 0
313 -12.45348 38.74096 115.94831 0 0 0
314 -12.79134 39.69186 116.05595 0 0 0
315 -12.39230 40.55834 116.14915 0 0 0
316 -12.86140 41.30523 116.73884 0 0 0
317 -13.16064 42.13610 117.21033 0 0 0
318 -12.98738 43.06482 117.39686 0 0 0
319 -13.57885 43.82040 117.23088 0 0 0
320 -14.21044 44.60327 117.26450 0 0 0
321 -15.01345 45.24914 117.09140 0 0 0
322 -15.77378 45.80018 117.26998 0 0 0
323 -16.19611 46.77737 117.18329 0 0 0
324 -16.56996 47.62032 117.10157 0 0 0
325 -17.11577 48.46919 117.27660 0 0 0
326 -16.98186 49.29942 117.82072 0 0 0
327 -16.45282 50.15762 117.85065 0 0 0
328 -16.66186 51.18757 117.99425 0 0 0
329 -17.43071 51.69430 117.50102 0 0 0
330 -18.12751 52.33487 117.54478 0 0 0
331 -19.02307 52.70603 117.23161 0 0 0
332 -19.49495 53.57596 117.03708 0 0 0
333 -19.93547 54.49028 116.93675 0 0 0
334 -20.20620 55.35505 117.33946 0 0 0
335 -20.26531 56.32789 117.29237 0 0 0
336 -20.71273 57.05413 117.83861 0 0 0
337 -20.72490 57.99833 117.57262 0 0 0
338 -21.26574 58.70684 117.82938 0 0 0
339 -21.07142 59.64040 118.25946 0 0 0
340 -21.14028 60.59126 118.25588 0 0 0
341 -20.96880 61.26792 117.57300 0 0 0
342 -21.55491 62.07740 117.38167 0 0 0
343 -21.91965 62.96599 117.14832 0 0 0
344 -22.08369 63.95810 117.59028 0 0 0
345 -22.13890 64.82458 118.04596 0 0 0
346 -21.86868 65.81641 118.38402 0 0 0
347 -21.77214 66.77956 118.06686 0 0 0
348 -21.47620 67.66823 118.38988 0 0 0
349 -21.92975 68.32186 118.94784 0 0 0
350 -22.28383 69.27520 119.07023 0 0 0
351 -23.04242 69.83375 119.04485 0 0 0
352 -23.67199 70.52297 118.76608 0 0 0
353 -24.13934 71.02568 118.06720 0 0 0
354 -24.41086 71.73847 117.41335 0 0 0
355 -24.66462 72.63266 117.14155 0 0 0
356 -25.10386 73.47824 116.89884 0 0 0
357 -24.72131 74.31364 117.12728 0 0 0
358 -25.02629 75.20334 117.00081 0 0 0
359 -25.29254 76.04941 117.48588 0 0 0
360 -25.55008 76.88148 117.01791 0 0 0
361 -26.02778 77.76945 117.36949 0 0 0
362 -26.35641 78.75814 117.36467 0 0 0
363 -27.00897 79.58188 117.40331 0 0 0
364 -27.57865 80.39627 117.17429 0 0 0
365 -27.33417 81.36100 117.20569 0 0 0
366 -27.31506 82.31450 117.24404 0 0 0
367 -27.78739 83.02823 116.76363 0 0 0
368 -27.84785 83.85896 117.20100 0 0 0
369 -27.86790 84.82760 117.38645 0 0 0
370 -28.46204 85.51927 117.64664 0 0 0
371 -28.33869 86.49869 117.67765 0 0 0
372 -28.81464 87.23023 117.15463 0 0 0
373 -29.11954 88.30342 117.11035 0 0 0
374 -29.33340 88.43639 118.04372 0 0 0
375 -29.99908 88.68751 118.72156 0 0 0
376 -29.88452 89.63449 118.75870 0 0 0
377 -30.02267 90.56731 118.92584 0 0 0
378 -29.68126 91.31658 118.48826 0 0 0
379 -30.06703 92.26513 118.43453 0 0 0
380 -30.76316 92.88507 118.57395 0 0 0
381 -30.99417 93.79882 118.69012 0 0 0
382 -31.70919 94.43807 118.72296 0 0 0
383 -31.93949 95.39015 118.69110 0 0 0
384 -32.32969 96.24901 118.64385 0 0 0
385 -32.99513 96.99436 118.72985 0 0 0
386 -32.91351 97.99423 118.59775 0 0 0
387 -33.00361 98.82901 118.12354 0 0 0
388 -33.05660 99.67221 117.50297 0 0 0
389 -32.62317 100.35902 116.97005 0 0 0