ITEM: TIMESTEP
0
ITEM: NUMBER OF ATOMS
100
ITEM: BOX BOUNDS pp pp pp
-1.0000000000000000e+03 1.0000000000000000e+03
-1.0000000000000000e+03 1.0000000000000000e+03
-1.0000000000000000e+03 1.0000000000000000e+03
ITEM: ATOMS id x y z ix iy iz
1 0.00000 0.00000 0.00000 0 0 0
2 0.00000 0.00000 1.00000 0 0 0
3 0.00000 -0.50000 1.86603 0 0 0
4 0.00000 0.00000 2.73205 0 0 0
5 0.00000 -0.50000 3.59808 0 0 0
6 0.00000 0.00000 4.46410 0 0 0
7 0.00000 -0.50000 5.33013 0 0 0
8 0.00000 0.00000 6.19615 0 0 0
9 0.00000 -0.50000 7.06218 0 0 0
10 0.00000 0.00000 7.92820 0 0 0
11 0.00000 -0.50000 8.79423 0 0 0
12 0.00000 0.00000 9.66025 0 0 0
13 0.00000 -0.50000 10.52628 0 0 0
14 0.00000 0.00000 11.39230 0 0 0
15 0.00000 -0.50000 12.25833 0 0 0
16 0.00000 0.00000 13.12436 0 0 0
17 0.00000 -0.50000 13.99038 0 0 0
18 0.00000 0.00000 14.85641 0 0 0
19 0.00000 -0.50000 15.72243 0 0 0
20 0.00000 0.00000 16.58846 0 0 0
21 0.00000 -0.50000 17.45448 0 0 0
22 0.00000 0.00000 18.32051 0 0 0
23 0.00000 -0.50000 19.18653 0 0 0
24 0.00000 0.00000 20.05256 0 0 0
25 0.00000 -0.50000 20.91858 0 0 0
26 0.00000 0.00000 21.78461 0 0 0
27 0.00000 -0.50000 22.65064 0 0 0
28 0.00000 0.00000 23.51666 0 0 0
29 0.00000 -0.50000 24.38269 0 0 0
30 0.00000 0.00000 25.24871 0 0 0
31 0.00000 -0.50000 26.11474 0 0 0
32 0.00000 0.00000 26.98076 0 0 0
33 0.00000 -0.50000 27.84679 0 0 0
34 0.00000 0.00000 28.71281 0 0 0
35 0.86530 0.28073 29.12808 0 0 0
36 1.73060 0.31622 29.62808 0 0 0
37 2.59589 0.76697 29.84735 0 0 0
38 3.46119 0.80246 30.34735 0 0 0
39 4.32649 1.25321 30.56662 0 0 0
40 5.19179 1.28869 31.06662 0 0 0
41 6.05709 1.73945 31.28589 0 0 0
42 6.92238 1.77493 31.78589 0 0 0
43 7.78768 2.22569 32.00516 0 0 0
44 8.65298 2.26117 32.50516 0 0 0
45 9.51828 2.71193 32.72443 0 0 0
46 10.38358 2.74741 33.22443 0 0 0
47 11.24888 3.19817 33.44370 0 0 0
48 12.11417 3.23365 33.94370 0 0 0
49 12.97947 3.68441 34.16297 0 0 0
50 13.84477 3.71989 34.66297 0 0 0
51 14.71007 4.17065 34.88224 0 0 0
52 15.57537 4.20613 35.38224 0 0 0
53 16.44066 4.65689 35.60151 0 0 0
54 17.30596 4.69237 36.10151 0 0 0
55 18.17126 5.14313 36.32078 0 0 0
56 19.03656 5.17861 36.82078 0 0 0
57 19.90186 5.62937 37.04005 0 0 0
58 20.76715 5.66485 37.54005 0 0 0
59 21.63245 6.11561 37.75932 0 0 0
60 22.49775 6.15109 38.25932 0 0 0
61 23.36305 6.60185 38.47858 0 0 0
62 24.22835 6.63733 38.97858 0 0 0
63 25.09365 7.08809 39.19785 0 0 0
64 25.95894 7.12357 39.69785 0 0 0
65 26.82424 7.57433 39.91712 0 0 0
66 27.68954 7.60981 40.41712 0 0 0
67 28.55484 8.06057 40.63639 0 0 0
68 -0.86530 0.21927 29.16357 0 0 0
69 -1.73060 0.18378 29.66357 0 0 0
70 -2.59589 0.59906 29.94430 0 0 0
71 -3.46119 0.56357 30.44430 0 0 0
72 -4.32649 0.97884 30.72503 0 0 0
73 -5.19179 0.94336 31.22503 0 0 0
74 -6.05709 1.35863 31.50576 0 0 0
75 -6.92238 1.32314 32.00576 0 0 0
76 -7.78768 1.73841 32.28649 0 0 0
77 -8.65298 1.70293 32.78649 0 0 0
78 -9.51828 2.11820 33.06722 0 0 0
79 -10.38358 2.08271 33.56722 0 0 0
80 -11.24888 2.49798 33.84795 0 0 0
81 -12.11417 2.46250 34.34795 0 0 0
82 -12.97947 2.87777 34.62868 0 0 0
83 -13.84477 2.84228 35.12868 0 0 0
84 -14.71007 3.25755 35.40941 0 0 0
85 -15.57537 3.22207 35.90941 0 0 0
86 -16.44066 3.63734 36.19014 0 0 0
87 -17.30596 3.60186 36.69014 0 0 0
88 -18.17126 4.01713 36.97087 0 0 0
89 -19.03656 3.98164 37.47087 0 0 0
90 -19.90186 4.39691 37.75161 0 0 0
91 -20.76715 4.36143 38.25161 0 0 0
92 -21.63245 4.77670 38.53234 0 0 0
93 -22.49775 4.74121 39.03234 0 0 0
94 -23.36305 5.15648 39.31307 0 0 0
95 -24.22835 5.12100 39.81307 0 0 0
96 -25.09365 5.53627 40.09380 0 0 0
97 -25.95894 5.50078 40.59380 0 0 0
98 -26.82424 5.91605 40.87453 0 0 0
99 -27.68954 5.88057 41.37453 0 0 0
100 -28.55484 6.29584 41.65526 0 0 0
ITEM: TIMESTEP
1000
ITEM: NUMBER OF ATOMS
100
ITEM: BOX BOUNDS pp pp pp
-1.0000000000000000e+03 1.0000000000000000e+03
-1.0000000000000000e+03 1.0000000000000000e+03
-1.0000000000000000e+03 1.0000000000000000e+03
ITEM: ATOMS id x y z ix iy iz
1 -0.52869 -0.48481 4.91237 0 0 0
2 0.21288 -0.67947 5.48643 0 0 0
3 1.08147 -0.32230 5.88772 0 0 0
4 1.13862 -0.76038 6.73681 0 0 0
5 1.30227 0.17773 7.14921 0 0 0
6 1.52773 0.55532 8.03150 0 0 0
7 0.75508 0.80186 8.49265 0 0 0
8 0.16564 0.44301 9.24062 0 0 0
9 0.17547 0.26793 10.20813 0 0 0
10 0.37004 0.17734 11.08380 0 0 0
11 0.86099 0.06200 11.91837 0 0 0
12 0.09348 0.11749 12.55969 0 0 0
13 0.19424 0.11580 13.54948 0 0 0
14 -0.69277 0.14079 13.98040 0 0 0
15 -0.34648 -0.05797 14.87743 0 0 0
16 -0.13084 0.58311 15.53292 0 0 0
17 0.40070 1.11607 16.14535 0 0 0
18 1.10854 1.31137 16.80550 0 0 0
19 0.69759 0.98394 17.67298 0 0 0
20 0.35024 0.13058 17.86103 0 0 0
21 0.00591 0.31933 18.79282 0 0 0
22 0.37191 0.51487 19.66869 0 0 0
23 0.85936 0.09037 20.37960 0 0 0
24 0.89666 0.11146 21.30193 0 0 0
25 1.00713 0.46960 22.24684 0 0 0
26 1.03804 0.05453 23.18524 0 0 0
27 1.39118 0.17384 24.10872 0 0 0
28 0.89407 -0.01683 24.96533 0 0 0
29 0.73941 -0.30550 25.93362 0 0 0
30 0.31792 -0.30051 26.87290 0 0 0
31 -0.19953 0.33832 27.37388 0 0 0
32 0.33906 0.91776 27.94752 0 0 0
33 1.04487 1.08720 28.60513 0 0 0
34 0.92697 1.92162 29.13983 0 0 0
35 1.30852 1.36544 29.82205 0 0 0
36 2.08333 1.32019 30.42988 0 0 0
37 2.94560 0.93786 30.82191 0 0 0
38 3.85409 1.13023 31.10409 0 0 0
39 4.82334 0.87102 31.20297 0 0 0
40 5.71482 0.87263 31.50769 0 0 0
41 6.60336 1.10789 31.33080 0 0 0
42 7.37647 1.14121 32.07717 0 0 0
43 8.09013 0.48876 32.11018 0 0 0
44 8.89153 0.85165 32.68940 0 0 0
45 9.83865 0.86802 32.79942 0 0 0
46 10.69549 1.39210 32.87483 0 0 0
47 11.28763 2.18042 32.69572 0 0 0
48 12.14984 2.39404 32.22942 0 0 0
49 13.16758 2.25983 32.37156 0 0 0
50 14.11227 2.34316 32.59309 0 0 0
51 14.92299 2.51262 33.24078 0 0 0
52 15.79982 2.44852 33.56315 0 0 0
53 16.33505 2.87197 34.29333 0 0 0
54 17.19897 2.97398 34.75858 0 0 0
55 17.95073 3.36900 35.28656 0 0 0
56 18.78491 3.88885 35.52091 0 0 0
57 19.61536 3.93540 36.07943 0 0 0
58 19.89840 4.70149 36.56980 0 0 0
59 20.44953 5.50171 36.50453 0 0 0
60 20.91028 5.06056 35.72840 0 0 0
61 21.78567 5.28407 35.66530 0 0 0
62 22.30017 5.95841 36.19256 0 0 0
63 23.10768 5.72766 36.60299 0 0 0
64 23.93759 6.29892 36.60501 0 0 0
65 23.80001 7.26982 36.92406 0 0 0
66 23.09159 7.93447 37.28756 0 0 0
67 22.53068 8.53804 37.89994 0 0 0
68 0.02668 1.82387 29.51065 0 0 0
69 -0.43319 2.18173 30.29692 0 0 0
70 -1.38683 2.22791 30.68853 0 0 0
71 -2.29096 2.04782 30.54418 0 0 0
72 -3.16942 1.69948 30.36527 0 0 0
73 -4.13771 2.09868 30.68011 0 0 0
74 -4.98494 1.77566 31.07103 0 0 0
75 -5.58921 1.86215 31.81424 0 0 0
76 -6.36469 1.43409 32.21734 0 0 0
77 -7.17288 1.93745 32.21154 0 0 0
78 -7.68451 1.93456 32.98194 0 0 0
79 -8.55708 2.37946 32.84289 0 0 0
80 -9.34881 1.78707 33.08867 0 0 0
81 -10.19547 2.17286 33.45100 0 0 0
82 -11.02736 2.72727 33.41050 0 0 0
83 -11.99843 2.61097 33.43295 0 0 0
84 -12.60686 2.12319 34.12562 0 0 0
85 -13.03327 2.09300 35.05486 0 0 0
86 -13.68268 1.61414 35.73369 0 0 0
87 -14.55009 1.26901 36.12159 0 0 0
88 -15.50795 1.41689 36.44936 0 0 0
89 -16.17882 1.52983 37.15301 0 0 0
90 -16.64533 2.37263 37.13894 0 0 0
91 -17.53087 2.91861 37.09850 0 0 0
92 -18.32300 3.35226 37.45109 0 0 0
93 -18.80956 2.69957 37.98929 0 0 0
94 -19.02479 3.63740 38.35474 0 0 0
95 -19.24257 4.53383 38.12305 0 0 0
96 -19.99204 4.88496 38.65063 0 0 0
97 -20.88799 4.65693 38.92456 0 0 0
98 -20.79765 5.03652 39.81122 0 0 0
99 -21.34022 4.81364 40.62406 0 0 0
100 -21.66626 4.09664 40.09874 0 0 0
ITEM: TIMESTEP
2000
ITEM: NUMBER OF ATOMS
100
ITEM: BOX BOUNDS pp pp pp
-1.0000000000000000e+03 1.0000000000000000e+03
-1.0000000000000000e+03 1.0000000000000000e+03
-1.0000000000000000e+03 1.0000000000000000e+03
ITEM: ATOMS id x y z ix iy iz
1 1.31603 1.68473 5.74648 0 0 0
2 2.15213 1.27363 5.70435 0 0 0
3 2.96901 0.92243 5.93126 0 0 0
4 2.75126 1.06187 6.89476 0 0 0
5 1.96413 0.53701 7.25719 0 0 0
6 2.15547 0.65382 8.24636 0 0 0
7 2.05560 1.21946 9.09107 0 0 0
8 1.95511 0.89156 10.00596 0 0 0
9 1.43892 0.47475 10.80600 0 0 0
10 0.48895 0.95454 10.75329 0 0 0
11 -0.47176 1.42758 10.82816 0 0 0
12 -0.63871 0.68914 11.40950 0 0 0
13 -0.17655 0.69052 12.26714 0 0 0
14 -0.36513 0.33505 13.15273 0 0 0
15 -0.33548 0.24594 14.16688 0 0 0
16 0.17352 0.08807 14.97929 0 0 0
17 0.06438 0.08456 15.95053 0 0 0
18 -0.05887 -0.53715 16.70056 0 0 0
19 0.36056 -0.75236 17.55476 0 0 0
20 0.57002 -0.78275 18.55755 0 0 0
21 0.42617 -1.31043 19.36057 0 0 0
22 -0.19015 -1.01071 20.04250 0 0 0
23 -0.99438 -0.77437 20.54445 0 0 0
24 -0.64479 -0.48531 21.40072 0 0 0
25 0.03396 0.10960 21.89949 0 0 0
26 -0.11501 0.68098 22.65679 0 0 0
27 0.43819 0.16606 23.36095 0 0 0
28 0.91881 0.31814 24.19018 0 0 0
29 1.04799 -0.12931 25.04641 0 0 0
30 1.26889 -0.09258 26.00493 0 0 0
31 0.60608 0.18741 26.74636 0 0 0
32 0.50253 0.92810 27.31984 0 0 0
33 0.68299 0.89537 28.24200 0 0 0
34 1.11930 1.11996 29.16586 0 0 0
35 2.00341 1.41570 28.81775 0 0 0
36 2.69117 2.05035 29.12456 0 0 0
37 3.46801 1.89249 29.63969 0 0 0
38 4.09269 1.50046 30.26181 0 0 0
39 4.78849 1.20158 30.87590 0 0 0
40 5.28194 0.39341 30.65744 0 0 0
41 6.09329 0.90392 30.87796 0 0 0
42 7.05722 0.71129 30.83704 0 0 0
43 7.55012 0.11852 31.43745 0 0 0
44 8.17301 0.02652 32.18432 0 0 0
45 9.15334 0.07603 31.95226 0 0 0
46 9.79773 0.48745 32.56292 0 0 0
47 10.50054 0.88105 33.21376 0 0 0
48 10.92092 1.25644 34.02765 0 0 0
49 11.15458 1.70798 34.91140 0 0 0
50 12.12954 1.72491 34.93346 0 0 0
51 12.90321 2.39597 34.85122 0 0 0
52 13.51964 2.90811 34.38551 0 0 0
53 14.33007 3.53515 33.99445 0 0 0
54 14.59729 4.02059 34.88401 0 0 0
55 15.46377 3.97284 35.14975 0 0 0
56 16.34265 4.26186 35.45732 0 0 0
57 16.97307 3.98894 34.81676 0 0 0
58 17.89976 3.95277 35.31697 0 0 0
59 18.72433 3.51868 35.43391 0 0 0
60 19.18780 3.40183 36.32113 0 0 0
61 19.88023 4.08213 36.68004 0 0 0
62 20.08664 4.98001 37.18249 0 0 0
63 20.84827 5.58493 37.34535 0 0 0
64 21.40065 6.46669 37.00677 0 0 0
65 21.45042 7.25179 36.47585 0 0 0
66 22.46707 7.16545 36.40977 0 0 0
67 23.23294 7.04689 36.94805 0 0 0
68 0.37917 1.73881 29.41094 0 0 0
69 0.14730 2.49525 29.99601 0 0 0
70 -0.62596 3.10208 29.73195 0 0 0
71 -1.57386 3.32035 29.50328 0 0 0
72 -1.92736 2.64967 30.14504 0 0 0
73 -2.50460 2.45175 30.95855 0 0 0
74 -3.31867 2.22671 31.39005 0 0 0
75 -3.98371 2.19482 32.13129 0 0 0
76 -4.96254 1.89152 32.29098 0 0 0
77 -5.66164 2.62836 32.14395 0 0 0
78 -6.35792 1.87470 32.26120 0 0 0
79 -6.48972 1.46732 33.13978 0 0 0
80 -7.37615 1.81906 33.00670 0 0 0
81 -8.26162 1.82991 33.40774 0 0 0
82 -9.16080 2.11662 33.31449 0 0 0
83 -9.88715 1.53097 33.66244 0 0 0
84 -10.47027 1.23700 34.33826 0 0 0
85 -11.33783 1.74861 34.38544 0 0 0
86 -11.27428 2.34254 35.19806 0 0 0
87 -12.04212 2.33517 35.75076 0 0 0
88 -12.80365 2.69702 36.21397 0 0 0
89 -13.67269 3.01896 36.21008 0 0 0
90 -14.65059 2.71321 36.18787 0 0 0
91 -15.55462 2.61630 35.76441 0 0 0
92 -16.45915 2.86067 36.04776 0 0 0
93 -17.39797 3.12529 36.02590 0 0 0
94 -18.38956 3.20553 35.87103 0 0 0
95 -18.90634 3.16179 36.67759 0 0 0
96 -19.10889 3.69678 37.47095 0 0 0
97 -19.66377 4.39802 37.81121 0 0 0
98 -20.57153 4.44505 37.52887 0 0 0
99 -21.24188 4.58089 36.81511 0 0 0
100 -21.42402 3.57788 36.90829 0 0 0
ITEM: TIMESTEP
3000
ITEM: NUMBER OF ATOMS
100
ITEM: BOX BOUNDS pp pp pp
-1.0000000000000000e+03 1.0000000000000000e+03
-1.0000000000000000e+03 1.0000000000000000e+03
-1.0000000000000000e+03 1.0000000000000000e+03
ITEM: ATOMS id x y z ix iy iz
1 1.38282 1.28974 11.15618 0 0 0
2 2.10378 1.06556 10.44960 0 0 0
3 1.46088 1.27533 9.62685 0 0 0
4 0.63914 0.76364 9.79694 0 0 0
5 1.09141 -0.13170 9.81722 0 0 0
6 1.13787 -0.91617 10.46403 0 0 0
7 1.07427 -1.29028 11.38608 0 0 0
8 1.86274 -1.64698 11.91259 0 0 0
9 1.59540 -0.91491 12.58291 0 0 0
10 0.96872 -0.23605 12.80605 0 0 0
11 0.18718 0.29221 12.97274 0 0 0
12 -0.41167 0.37544 13.71110 0 0 0
13 -0.28977 0.36152 14.68911 0 0 0
14 -0.60807 1.09503 15.30103 0 0 0
15 -0.69905 1.85039 15.86720 0 0 0
16 -1.54114 1.74171 16.36695 0 0 0
17 -1.20534 1.43951 17.31463 0 0 0
18 -0.59559 0.74965 17.56063 0 0 0
19 -0.52748 0.35346 18.41676 0 0 0
20 -0.15854 0.79066 19.23697 0 0 0
21 0.19445 1.49591 19.90084 0 0 0
22 0.21489 1.41557 20.88040 0 0 0
23 0.11537 1.13103 21.73694 0 0 0
24 0.72390 0.73462 22.36925 0 0 0
25 0.31273 1.35621 22.93497 0 0 0
26 0.82572 0.62764 23.44461 0 0 0
27 0.70071 0.54323 24.38327 0 0 0
28 0.37582 1.05688 25.08435 0 0 0
29 0.07929 0.52441 25.93218 0 0 0
30 -0.33212 -0.10584 26.58617 0 0 0
31 0.05154 0.63119 27.12534 0 0 0
32 0.95858 1.04276 27.48193 0 0 0
33 0.53690 1.09414 28.37990 0 0 0
34 0.72698 1.44677 29.24708 0 0 0
35 1.61511 1.29761 29.02122 0 0 0
36 1.91622 2.10643 28.46227 0 0 0
37 2.89071 2.15531 28.55215 0 0 0
38 3.64533 1.66473 28.13806 0 0 0
39 4.47136 1.43671 28.58066 0 0 0
40 5.30792 1.41173 29.03902 0 0 0
41 6.33396 1.43459 29.06638 0 0 0
42 7.28305 1.13817 29.02195 0 0 0
43 7.33958 0.45795 29.67285 0 0 0
44 8.02709 0.64595 30.44391 0 0 0
45 8.25075 1.33924 31.22623 0 0 0
46 9.21114 1.66721 31.24041 0 0 0
47 9.42061 2.40692 31.95286 0 0 0
48 10.34901 2.70482 32.01971 0 0 0
49 10.68074 2.06318 32.65271 0 0 0
50 11.50327 1.96161 33.27291 0 0 0
51 12.26887 2.10983 33.85399 0 0 0
52 12.78758 1.92624 34.68695 0 0 0
53 13.01781 2.79784 35.04620 0 0 0
54 13.70913 2.82170 35.69903 0 0 0
55 14.61660 2.89567 35.99922 0 0 0
56 15.31517 2.89178 35.33425 0 0 0
57 15.70881 3.56253 34.78629 0 0 0
58 16.50668 3.30533 34.31677 0 0 0
59 16.91758 3.12665 33.41878 0 0 0
60 17.74505 3.15585 32.98830 0 0 0
61 18.54648 3.43985 33.44073 0 0 0
62 19.38005 3.75953 33.81423 0 0 0
63 19.29923 4.11171 32.88628 0 0 0
64 19.74834 5.02299 32.83915 0 0 0
65 20.00225 5.14577 33.84391 0 0 0
66 19.44408 5.57920 34.74605 0 0 0
67 19.64855 6.30726 34.09447 0 0 0
68 0.04601 1.09266 29.87025 0 0 0
69 -0.54098 1.56175 30.46820 0 0 0
70 -1.33636 1.78560 30.00183 0 0 0
71 -2.04159 2.28375 30.25791 0 0 0
72 -2.92480 2.17895 30.67690 0 0 0
73 -3.30694 2.89478 31.14891 0 0 0
74 -3.89231 2.48005 31.83691 0 0 0
75 -4.54136 2.25043 32.53443 0 0 0
76 -5.28052 2.26699 33.06721 0 0 0
77 -5.83493 1.45516 32.96245 0 0 0
78 -6.81409 1.59731 33.05306 0 0 0
79 -7.79527 1.76514 32.93655 0 0 0
80 -8.67838 1.52229 33.44451 0 0 0
81 -9.45805 1.77590 34.09955 0 0 0
82 -10.38157 2.22785 34.22771 0 0 0
83 -11.21725 2.04295 34.76543 0 0 0
84 -10.88414 1.64675 35.55973 0 0 0
85 -11.52943 2.00971 36.31387 0 0 0
86 -12.29763 1.79237 36.91033 0 0 0
87 -12.39553 2.75416 37.15207 0 0 0
88 -12.71906 3.71717 37.34261 0 0 0
89 -13.64565 3.71160 37.60567 0 0 0
90 -14.24527 4.05046 36.95991 0 0 0
91 -14.82036 3.77253 36.32570 0 0 0
92 -15.80097 3.85810 36.07656 0 0 0
93 -16.69637 4.11882 36.21207 0 0 0
94 -16.49256 4.97633 36.72618 0 0 0
95 -15.95327 5.28327 36.00097 0 0 0
96 -16.15209 5.00008 35.03833 0 0 0
97 -16.84054 4.48314 34.68799 0 0 0
98 -17.78484 4.61400 34.62142 0 0 0
99 -18.54686 5.09762 34.51235 0 0 0
100 -18.72522 5.03024 33.52534 0 0 0
ITEM: TIMESTEP
4000
ITEM: NUMBER OF ATOMS
100
ITEM: BOX BOUNDS pp pp pp
-1.0000000000000000e+03 1.0000000000000000e+03
-1.0000000000000000e+03 1.0000000000000000e+03
-1.0000000000000000e+03 1.0000000000000000e+03
ITEM: ATOMS id x y z ix iy iz
1 2.86004 1.50876 10.52079 0 0 0
2 2.67763 1.75874 11.53978 0 0 0
3 2.91390 1.02229 12.12259 0 0 0
4 2.73061 0.12701 11.64918 0 0 0
5 2.54503 -0.24132 10.82478 0 0 0
6 1.64981 -0.28181 11.26396 0 0 0
7 1.38573 0.17713 12.10984 0 0 0
8 0.67474 0.91756 11.94239 0 0 0
9 -0.13145 0.38395 12.19229 0 0 0
10 -1.06508 0.33419 12.19970 0 0 0
11 -1.24529 1.15378 12.72474 0 0 0
12 -1.54048 1.44125 13.58931 0 0 0
13 -1.05148 1.53739 14.41534 0 0 0
14 -0.54304 0.96525 15.13139 0 0 0
15 -0.15508 0.97636 16.13408 0 0 0
16 0.39339 0.51310 16.83529 0 0 0
17 -0.02733 0.86338 17.73982 0 0 0
18 0.27450 0.75984 18.65230 0 0 0
19 0.66705 1.07222 19.46218 0 0 0
20 -0.05189 1.67315 19.85574 0 0 0
21 0.72589 1.71835 20.44750 0 0 0
22 0.12242 0.95268 20.83127 0 0 0
23 -0.16177 0.53636 21.80751 0 0 0
24 0.02735 0.22177 22.73009 0 0 0
25 0.32259 -0.34011 23.51784 0 0 0
26 0.66721 -0.22799 24.38765 0 0 0
27 1.03686 0.64962 24.73820 0 0 0
28 1.32251 1.02300 25.60831 0 0 0
29 0.99371 0.76776 26.43004 0 0 0
30 -0.00232 0.83547 26.25783 0 0 0
31 -0.56039 0.48164 26.96262 0 0 0
32 -0.36475 1.16896 27.67678 0 0 0
33 0.40639 1.34208 28.28386 0 0 0
34 0.40222 2.25227 28.59415 0 0 0
35 1.26437 1.93154 28.17425 0 0 0
36 2.17213 1.92607 28.32724 0 0 0
37 3.09776 1.71458 28.03538 0 0 0
38 2.99421 1.48755 28.96967 0 0 0
39 3.34085 1.25976 29.86489 0 0 0
40 4.24862 1.05748 29.85998 0 0 0
41 4.98495 0.32778 29.73145 0 0 0
42 5.91326 0.53763 29.81446 0 0 0
43 6.42810 0.86701 30.62289 0 0 0
44 6.98401 1.64595 30.90794 0 0 0
45 7.77235 2.28028 30.74490 0 0 0
46 8.09727 2.95925 30.21908 0 0 0
47 8.90871 3.56922 30.20489 0 0 0
48 9.56658 4.18866 30.55879 0 0 0
49 10.28172 4.53489 31.19127 0 0 0
50 10.84870 4.42852 31.91707 0 0 0
51 10.77162 3.97300 32.77965 0 0 0
52 10.94185 3.56003 33.58644 0 0 0
53 11.18829 2.54782 33.54601 0 0 0
54 12.05787 2.99915 33.61936 0 0 0
55 12.94302 2.86592 33.30318 0 0 0
56 13.10971 1.92690 33.22641 0 0 0
57 13.66684 2.24533 33.91987 0 0 0
58 14.48063 2.58292 34.25478 0 0 0
59 15.14769 2.68783 34.99554 0 0 0
60 15.74341 3.30745 35.45739 0 0 0
61 15.93234 2.65714 36.11629 0 0 0
62 16.28867 3.32569 36.77316 0 0 0
63 17.22719 3.56778 36.65069 0 0 0
64 17.72698 4.42271 36.44038 0 0 0
65 17.55135 5.38609 36.19284 0 0 0
66 17.81537 6.18689 36.63069 0 0 0
67 17.27156 6.78693 37.12503 0 0 0
68 -0.37504 2.91940 28.80541 0 0 0
69 -1.10311 2.31207 28.88852 0 0 0
70 -1.78197 2.00868 29.59425 0 0 0
71 -2.31655 2.62681 30.13527 0 0 0
72 -3.07065 2.79224 30.74387 0 0 0
73 -3.90490 2.92668 31.30067 0 0 0
74 -4.86923 2.71746 31.41622 0 0 0
75 -5.09713 2.96768 32.37998 0 0 0
76 -5.97531 3.18502 32.29623 0 0 0
77 -6.88889 3.05778 32.45653 0 0 0
78 -6.27764 2.60358 33.12568 0 0 0
79 -6.45885 2.86131 34.07589 0 0 0
80 -7.11311 2.03999 33.99077 0 0 0
81 -8.02201 2.35816 34.02809 0 0 0
82 -8.44696 2.46136 34.95129 0 0 0
83 -8.88195 2.41345 35.82946 0 0 0
84 -9.31515 3.25105 35.76041 0 0 0
85 -9.94288 3.95077 35.47336 0 0 0
86 -10.65956 3.56198 36.05084 0 0 0
87 -11.65152 3.88135 35.83666 0 0 0
88 -12.27070 4.49725 36.22570 0 0 0
89 -12.77841 4.16875 37.06844 0 0 0
90 -13.18055 3.32517 37.40497 0 0 0
91 -13.87423 2.77426 37.63090 0 0 0
92 -14.52022 3.02814 36.81957 0 0 0
93 -14.69967 3.92995 37.06990 0 0 0
94 -15.57583 4.02217 36.63559 0 0 0
95 -16.09233 3.28265 37.06760 0 0 0
96 -16.76023 2.73236 36.58271 0 0 0
97 -16.54662 3.02840 35.72817 0 0 0
98 -16.81956 3.85673 35.17136 0 0 0
99 -16.04479 4.29005 34.68689 0 0 0
100 -15.59799 4.15187 33.78043 0 0 0
ITEM: TIMESTEP
5000
ITEM: NUMBER OF ATOMS
100
ITEM: BOX BOUNDS pp pp pp
-1.0000000000000000e+03 1.0000000000000000e+03
-1.0000000000000000e+03 1.0000000000000000e+03
-1.0000000000000000e+03 1.0000000000000000e+03
ITEM: ATOMS id x y z ix iy iz
1 5.59066 0.01842 13.59313 0 0 0
2 5.19927 0.86799 13.55396 0 0 0
3 4.36060 0.65147 13.07428 0 0 0
4 3.46856 0.26584 13.19236 0 0 0
5 2.91197 0.72842 12.53138 0 0 0
6 3.29208 0.23484 11.74174 0 0 0
7 2.69096 -0.45947 12.06003 0 0 0
8 1.72779 -0.40460 12.19957 0 0 0
9 1.25739 0.34553 12.62360 0 0 0
10 1.28706 -0.07227 13.47442 0 0 0
11 1.04442 0.73521 14.01777 0 0 0
12 1.00319 1.65670 13.88417 0 0 0
13 1.57962 2.40315 13.83644 0 0 0
14 1.83517 2.66203 14.68072 0 0 0
15 1.58291 2.16204 15.48596 0 0 0
16 0.87808 1.50675 15.34923 0 0 0
17 0.52791 2.13920 16.00486 0 0 0
18 0.42869 1.93890 16.96398 0 0 0
19 0.04374 1.06628 17.19510 0 0 0
20 0.57096 0.76055 17.91361 0 0 0
21 0.17548 0.81665 18.83802 0 0 0
22 0.40119 0.03328 19.34393 0 0 0
23 1.15038 -0.43352 19.81634 0 0 0
24 1.05256 -0.50445 20.78271 0 0 0
25 0.77318 -0.01721 21.59737 0 0 0
26 1.01123 -0.18562 22.50566 0 0 0
27 1.01392 0.34018 23.33995 0 0 0
28 1.20145 -0.60585 23.79120 0 0 0
29 0.95823 -1.03064 24.59868 0 0 0
30 0.68761 -1.20094 25.50193 0 0 0
31 0.25645 -0.46552 25.98439 0 0 0
32 -0.58427 -0.22987 26.46445 0 0 0
33 -0.87340 0.40602 27.11039 0 0 0
34 -0.97648 0.87982 28.00880 0 0 0
35 -0.17654 1.53178 28.26071 0 0 0
36 0.70024 1.89428 28.25949 0 0 0
37 1.58199 1.81755 28.69218 0 0 0
38 2.47755 1.65702 28.23187 0 0 0
39 3.27477 2.04068 28.19748 0 0 0
40 3.81283 1.92635 27.32311 0 0 0
41 4.46358 2.44765 27.84692 0 0 0
42 5.17450 2.20794 28.45345 0 0 0
43 5.89688 2.33234 29.01609 0 0 0
44 6.81519 2.28410 29.36146 0 0 0
45 7.55396 2.61349 30.02689 0 0 0
46 8.16671 2.13976 30.63193 0 0 0
47 8.12359 2.19138 31.54826 0 0 0
48 9.06959 2.30021 31.66386 0 0 0
49 9.08343 2.72051 32.48636 0 0 0
50 9.23730 2.39725 33.45444 0 0 0
51 10.02607 2.99905 33.62991 0 0 0
52 9.85449 3.44562 34.41622 0 0 0
53 10.39413 2.76094 34.75095 0 0 0
54 11.23225 2.81660 34.35520 0 0 0
55 11.94429 3.01522 35.01499 0 0 0
56 12.40981 3.00237 35.89371 0 0 0
57 12.68742 2.16438 36.26738 0 0 0
58 13.51026 2.03841 36.90553 0 0 0
59 14.34536 2.32056 37.27394 0 0 0
60 15.02089 3.07828 37.12099 0 0 0
61 15.63231 3.28611 36.38884 0 0 0
62 16.23947 3.73540 37.04118 0 0 0
63 17.08994 4.04597 37.25897 0 0 0
64 16.58763 4.82843 37.44102 0 0 0
65 16.73518 5.70011 37.81150 0 0 0
66 17.22229 5.79520 38.57595 0 0 0
67 17.51861 4.90022 38.72117 0 0 0
68 -1.68841 0.46020 28.55058 0 0 0
69 -1.78237 -0.17336 29.29849 0 0 0
70 -2.22927 0.10263 30.14301 0 0 0
71 -2.95924 0.41742 30.70568 0 0 0
72 -3.62087 0.34683 31.38167 0 0 0
73 -4.40553 0.73131 31.88475 0 0 0
74 -4.88749 1.35002 32.36769 0 0 0
75 -4.76815 2.34120 32.31002 0 0 0
76 -4.59086 3.01123 33.04590 0 0 0
77 -4.41790 3.88528 33.51428 0 0 0
78 -5.07139 4.25229 34.09744 0 0 0
79 -6.00218 4.41124 34.39645 0 0 0
80 -6.71475 4.45895 35.12671 0 0 0
81 -7.43712 4.97323 35.66576 0 0 0
82 -8.11359 4.38078 35.12887 0 0 0
83 -9.06561 4.51682 35.28976 0 0 0
84 -9.85410 4.96692 35.77596 0 0 0
85 -10.79561 5.18538 35.97314 0 0 0
86 -11.48421 5.08278 36.62799 0 0 0
87 -12.04400 5.91548 36.59982 0 0 0
88 -12.33225 5.24119 37.34137 0 0 0
89 -13.10478 4.70279 37.57308 0 0 0
90 -13.63869 5.47623 36.98413 0 0 0
91 -14.67570 5.50069 36.85860 0 0 0
92 -14.93596 4.65937 36.22888 0 0 0
93 -15.72780 4.70183 36.77012 0 0 0
94 -15.68525 3.91209 36.17114 0 0 0
95 -16.28506 3.61547 35.46184 0 0 0
96 -17.20163 3.85209 35.77797 0 0 0
97 -17.95711 3.75370 36.37236 0 0 0
98 -17.74946 2.96602 36.91217 0 0 0
99 -18.06114 2.98945 37.81598 0 0 0
100 -18.40500 2.02155 37.71057 0 0 0
ITEM: TIMESTEP
6000
ITEM: NUMBER OF ATOMS
100
ITEM: BOX BOUNDS pp pp pp
-1.0000000000000000e+03 1.0000000000000000e+03
-1.0000000000000000e+03 1.0000000000000000e+03
-1.0000000000000000e+03 1.0000000000000000e+03
ITEM: ATOMS id x y z ix iy iz
1 4.44870 2.00900 12.46477 0 0 0
2 4.23217 2.09969 13.46501 0 0 0
3 3.74370 1.45400 14.01824 0 0 0
4 2.85099 1.59062 13.76199 0 0 0
5 2.32877 0.87943 13.29088 0 0 0
6 1.42353 0.64923 13.72061 0 0 0
7 1.22529 1.16653 12.94088 0 0 0
8 1.13527 1.88400 12.26783 0 0 0
9 0.95436 2.79058 12.59630 0 0 0
10 0.87238 2.31028 13.38480 0 0 0
11 0.88746 2.21928 14.37285 0 0 0
12 -0.06183 1.90881 14.56396 0 0 0
13 -0.05216 1.06425 14.19831 0 0 0
14 -0.83662 1.02111 13.67537 0 0 0
15 -1.53313 1.14104 14.38602 0 0 0
16 -1.04295 1.70937 15.03048 0 0 0
17 -0.30691 1.47283 15.68896 0 0 0
18 -0.18944 1.95972 16.56963 0 0 0
19 -0.31434 1.32432 17.29429 0 0 0
20 -0.31140 0.75442 18.10427 0 0 0
21 0.00103 0.29878 18.93086 0 0 0
22 0.82909 0.79317 19.13707 0 0 0
23 1.22305 0.69426 20.04179 0 0 0
24 1.32982 0.29460 20.96192 0 0 0
25 1.82580 -0.30855 21.53460 0 0 0
26 2.46701 -0.31672 22.26919 0 0 0
27 2.30203 0.20857 23.08623 0 0 0
28 3.25834 0.48077 23.55035 0 0 0
29 2.30007 0.61351 24.16238 0 0 0
30 1.64101 1.17954 24.48555 0 0 0
31 1.41872 2.00305 25.11461 0 0 0
32 0.76992 2.45944 25.63718 0 0 0
33 0.12205 2.82688 26.27458 0 0 0
34 -0.15371 3.55052 26.80336 0 0 0
35 0.49258 3.81275 27.46624 0 0 0
36 1.24703 4.23472 28.00130 0 0 0
37 2.03019 3.77423 28.32474 0 0 0
38 2.03674 2.88204 28.74329 0 0 0
39 3.00650 2.80369 28.70168 0 0 0
40 3.85940 3.05475 28.23514 0 0 0
41 3.53578 2.29566 27.69134 0 0 0
42 4.48652 2.20844 27.45567 0 0 0
43 5.39614 1.74885 27.37706 0 0 0
44 5.22789 2.38793 28.12895 0 0 0
45 5.70574 2.22640 28.98786 0 0 0
46 6.22937 2.85373 29.56078 0 0 0
47 6.69459 3.61047 30.02981 0 0 0
48 7.40483 4.30235 30.08321 0 0 0
49 8.20092 4.85103 30.35313 0 0 0
50 8.85479 4.83073 30.97269 0 0 0
51 8.82539 4.25762 31.73739 0 0 0
52 8.79518 3.73483 32.57033 0 0 0
53 9.60526 3.73589 33.17381 0 0 0
54 9.69190 3.17022 34.05143 0 0 0
55 9.99753 3.20924 34.96434 0 0 0
56 10.78895 3.37834 35.50103 0 0 0
57 11.65866 3.48394 35.98985 0 0 0
58 11.99560 3.49038 36.94367 0 0 0
59 12.81115 4.03649 36.74862 0 0 0
60 13.48607 4.61267 37.13907 0 0 0
61 14.10545 4.55742 37.90860 0 0 0
62 15.17811 4.76215 38.15202 0 0 0
63 16.00850 4.41177 37.78164 0 0 0
64 15.97189 5.14483 37.12405 0 0 0
65 16.84358 5.18451 36.74464 0 0 0
66 17.50522 5.67912 37.21766 0 0 0
67 18.02288 6.10151 37.93626 0 0 0
68 -0.49542 4.11935 27.46968 0 0 0
69 -1.16648 3.59147 28.09038 0 0 0
70 -1.34185 3.82131 29.01343 0 0 0
71 -1.60448 3.98131 29.93770 0 0 0
72 -2.32001 4.74676 29.95840 0 0 0
73 -2.23949 4.31690 30.84499 0 0 0
74 -2.41456 4.31192 31.78636 0 0 0
75 -2.85548 4.09293 32.65595 0 0 0
76 -3.28178 4.72372 33.25181 0 0 0
77 -4.19418 4.99320 32.97512 0 0 0
78 -4.39246 4.24049 33.55988 0 0 0
79 -5.31310 4.36175 33.92106 0 0 0
80 -6.12729 4.13110 34.48894 0 0 0
81 -6.87525 4.67239 34.84241 0 0 0
82 -7.79882 4.90484 35.08264 0 0 0
83 -8.31150 5.02653 35.91953 0 0 0
84 -8.74987 5.07991 36.78708 0 0 0
85 -9.48217 5.64448 36.50203 0 0 0
86 -10.35837 5.69073 36.69662 0 0 0
87 -11.07587 5.95333 37.39488 0 0 0
88 -11.92531 6.45581 37.44684 0 0 0
89 -12.39609 6.98940 36.72505 0 0 0
90 -13.00481 6.81968 35.96445 0 0 0
91 -13.92939 6.69808 36.10546 0 0 0
92 -13.67491 6.86243 35.16464 0 0 0
93 -13.97153 6.06616 34.78346 0 0 0
94 -14.04224 5.18226 35.27901 0 0 0
95 -14.81618 5.68784 35.54900 0 0 0
96 -15.65815 5.70739 36.02594 0 0 0
97 -15.31305 4.94012 36.61350 0 0 0
98 -15.92314 4.21770 36.42052 0 0 0
99 -15.36192 3.49488 36.02428 0 0 0
100 -14.87059 2.52674 36.06491 0 0 0
ITEM: TIMESTEP
7000
ITEM: NUMBER OF ATOMS
100
ITEM: BOX BOUNDS pp pp pp
-1.0000000000000000e+03 1.0000000000000000e+03
-1.0000000000000000e+03 1.0000000000000000e+03
-1.0000000000000000e+03 1.0000000000000000e+03
ITEM: ATOMS id x y z ix iy iz
1 5.46884 0.99981 15.95189 0 0 0
2 4.67365 1.65299 16.20546 0 0 0
3 4.23159 1.19030 15.45489 0 0 0
4 3.33040 0.83128 15.14666 0 0 0
5 2.90079 1.70051 14.79557 0 0 0
6 2.09195 2.10850 14.55650 0 0 0
7 1.32807 2.59393 14.12701 0 0 0
8 0.39577 2.77406 13.81314 0 0 0
9 -0.33897 3.01667 14.36298 0 0 0
10 -0.40592 2.75039 15.28607 0 0 0
11 -0.11416 1.76604 15.50483 0 0 0
12 -0.97618 1.38644 15.87594 0 0 0
13 -1.22073 0.49513 15.37449 0 0 0
14 -1.96392 0.21130 15.99180 0 0 0
15 -1.35983 -0.12132 16.71533 0 0 0
16 -1.96236 -0.11751 17.48515 0 0 0
17 -1.17003 -0.28093 18.06923 0 0 0
18 -0.28871 0.00220 18.39715 0 0 0
19 0.73325 -0.21269 18.47398 0 0 0
20 1.60098 0.12801 18.79387 0 0 0
21 2.10590 -0.46072 19.45096 0 0 0
22 2.19383 -0.89313 20.32728 0 0 0
23 2.31873 -1.01610 21.27371 0 0 0
24 1.90719 -1.43910 22.03043 0 0 0
25 1.81761 -1.20931 22.98506 0 0 0
26 1.46428 -0.28804 23.30782 0 0 0
27 1.49899 0.46948 23.87624 0 0 0
28 1.26896 0.62361 24.84902 0 0 0
29 0.81274 0.82031 25.70600 0 0 0
30 1.63995 0.53648 26.24932 0 0 0
31 2.32927 1.01343 26.97254 0 0 0
32 1.72127 1.77062 26.95527 0 0 0
33 1.23423 2.05801 27.71396 0 0 0
34 1.60670 1.33268 28.22127 0 0 0
35 1.52482 0.39600 27.98061 0 0 0
36 2.48691 -0.08541 28.16351 0 0 0
37 3.17509 -0.14997 28.89884 0 0 0
38 2.93023 -0.54248 29.72600 0 0 0
39 3.44218 -0.89920 30.47629 0 0 0
40 4.31593 -0.61256 30.10100 0 0 0
41 4.38655 0.34638 30.08364 0 0 0
42 4.88280 1.25757 30.05657 0 0 0
43 4.73418 2.24970 29.80512 0 0 0
44 4.60705 3.22445 29.59450 0 0 0
45 5.47512 3.42669 29.87129 0 0 0
46 6.30170 3.94079 30.08875 0 0 0
47 7.07218 3.75421 30.58613 0 0 0
48 7.74564 3.67649 31.21061 0 0 0
49 7.99836 3.41663 32.10404 0 0 0
50 8.44600 3.83955 32.92260 0 0 0
51 8.07827 2.97386 33.16328 0 0 0
52 7.50361 2.62544 33.83064 0 0 0
53 7.61953 2.69297 34.77691 0 0 0
54 8.53285 3.01227 34.74369 0 0 0
55 9.36809 3.16489 34.36202 0 0 0
56 10.16307 3.09363 33.75623 0 0 0
57 10.60855 2.28394 33.84365 0 0 0
58 11.02229 1.77931 34.56478 0 0 0
59 11.96298 1.68323 34.84748 0 0 0
60 12.81620 1.85703 35.38450 0 0 0
61 13.57781 2.42090 35.04854 0 0 0
62 14.14693 3.11499 35.58808 0 0 0
63 14.81916 3.36745 36.36179 0 0 0
64 14.69451 2.41291 36.83678 0 0 0
65 15.32930 2.49936 37.61280 0 0 0
66 15.83195 2.29249 38.43340 0 0 0
67 16.79934 2.52024 38.36644 0 0 0
68 1.02102 1.39291 28.99161 0 0 0
69 0.07097 1.11517 29.09389 0 0 0
70 0.04473 1.72231 29.86876 0 0 0
71 -0.57643 1.43414 30.58687 0 0 0
72 -0.74449 0.70320 31.23793 0 0 0
73 -1.85995 0.87671 31.02764 0 0 0
74 -2.80945 0.85571 30.98241 0 0 0
75 -3.60948 1.45517 31.08630 0 0 0
76 -4.25491 2.10369 31.27999 0 0 0
77 -5.11553 2.08391 31.68357 0 0 0
78 -6.00832 2.37869 32.11541 0 0 0
79 -6.59398 2.58636 32.86353 0 0 0
80 -7.55809 2.75891 32.79361 0 0 0
81 -8.27594 3.32598 33.06715 0 0 0
82 -9.03839 3.30096 33.61131 0 0 0
83 -9.44388 3.22352 34.49755 0 0 0
84 -10.12419 3.11938 35.22285 0 0 0
85 -10.40480 3.49367 36.01516 0 0 0
86 -10.11659 4.53260 35.88028 0 0 0
87 -10.35967 5.47093 36.09349 0 0 0
88 -10.64042 6.03581 35.37776 0 0 0
89 -10.90246 6.67046 36.12236 0 0 0
90 -11.78126 6.80064 35.56638 0 0 0
91 -11.72181 5.98593 35.14128 0 0 0
92 -11.58407 4.92919 35.12818 0 0 0
93 -11.93074 5.21263 35.94121 0 0 0
94 -11.96284 5.07745 36.91426 0 0 0
95 -12.74856 4.59593 37.28100 0 0 0
96 -13.55915 4.93100 37.73602 0 0 0
97 -14.05254 4.15540 37.36121 0 0 0
98 -14.42417 3.71515 36.54956 0 0 0
99 -14.79178 4.68421 36.51761 0 0 0
100 -15.47999 5.34348 36.56471 0 0 0
ITEM: TIMESTEP
8000
ITEM: NUMBER OF ATOMS
100
ITEM: BOX BOUNDS pp pp pp
-1.0000000000000000e+03 1.0000000000000000e+03
-1.0000000000000000e+03 1.0000000000000000e+03
-1.0000000000000000e+03 1.0000000000000000e+03
ITEM: ATOMS id x y z ix iy iz