ITEM: TIMESTEP
0
ITEM: NUMBER OF ATOMS
293
ITEM: BOX BOUNDS pp pp pp
-1.0000000000000000e+03 1.0000000000000000e+03
-1.0000000000000000e+03 1.0000000000000000e+03
-1.0000000000000000e+03 1.0000000000000000e+03
ITEM: ATOMS id x y z ix iy iz
1 0.00000 0.00000 0.00000 0 0 0
2 0.00000 0.00000 1.00000 0 0 0
3 0.00000 -0.50000 1.86603 0 0 0
4 0.00000 0.00000 2.73205 0 0 0
5 0.00000 -0.50000 3.59808 0 0 0
6 0.00000 0.00000 4.46410 0 0 0
7 0.00000 -0.50000 5.33013 0 0 0
8 0.00000 0.00000 6.19615 0 0 0
9 0.00000 -0.50000 7.06218 0 0 0
10 0.00000 0.00000 7.92820 0 0 0
11 0.00000 -0.50000 8.79423 0 0 0
12 0.00000 0.00000 9.66025 0 0 0
13 0.00000 -0.50000 10.52628 0 0 0
14 0.00000 0.00000 11.39230 0 0 0
15 0.00000 -0.50000 12.25833 0 0 0
16 0.00000 0.00000 13.12436 0 0 0
17 0.00000 -0.50000 13.99038 0 0 0
18 0.00000 0.00000 14.85641 0 0 0
19 0.00000 -0.50000 15.72243 0 0 0
20 -0.21113 -1.46251 15.55217 0 0 0
21 -0.42227 -2.21095 14.92346 0 0 0
22 -0.63340 -3.12964 15.25727 0 0 0
23 -0.84454 -3.87807 14.62856 0 0 0
24 -1.05567 -4.79676 14.96237 0 0 0
25 -1.26680 -5.54519 14.33366 0 0 0
26 -1.47794 -6.46388 14.66747 0 0 0
27 -1.68907 -7.21232 14.03876 0 0 0
28 -1.90021 -8.13101 14.37257 0 0 0
29 -2.11134 -8.87944 13.74386 0 0 0
30 -2.32247 -9.79813 14.07767 0 0 0
31 -2.53361 -10.54656 13.44896 0 0 0
32 -2.74474 -11.46526 13.78277 0 0 0
33 -2.95588 -12.21369 13.15406 0 0 0
34 -3.16701 -13.13238 13.48787 0 0 0
35 -3.37815 -13.88081 12.85916 0 0 0
36 -3.58928 -14.79950 13.19297 0 0 0
37 -3.80041 -15.54793 12.56426 0 0 0
38 -0.69004 -0.11075 16.33261 0 0 0
39 -1.38009 -0.07874 17.05567 0 0 0
40 -2.07013 0.56346 17.38948 0 0 0
41 -2.76018 0.59547 18.11254 0 0 0
42 -3.45022 1.23766 18.44635 0 0 0
43 -4.14026 1.26967 19.16941 0 0 0
44 -4.83031 1.91187 19.50321 0 0 0
45 -5.52035 1.94388 20.22627 0 0 0
46 -6.21039 2.58607 20.56008 0 0 0
47 -6.90044 2.61808 21.28314 0 0 0
48 -7.59048 3.26028 21.61695 0 0 0
49 -8.28053 3.29229 22.34000 0 0 0
50 -8.97057 3.93448 22.67381 0 0 0
51 -9.66061 3.96649 23.39687 0 0 0
52 -10.35066 4.60869 23.73068 0 0 0
53 -11.04070 4.64070 24.45374 0 0 0
54 -11.73074 5.28289 24.78754 0 0 0
55 -12.42079 5.31491 25.51060 0 0 0
56 0.90118 -0.42745 16.14977 0 0 0
57 1.80236 -0.57828 16.55612 0 0 0
58 2.70353 -0.30179 16.88993 0 0 0
59 3.60471 -0.45262 17.29629 0 0 0
60 4.50589 -0.17612 17.63010 0 0 0
61 5.40707 -0.32696 18.03645 0 0 0
62 6.30824 -0.05046 18.37026 0 0 0
63 7.20942 -0.20130 18.77662 0 0 0
64 8.11060 0.07520 19.11043 0 0 0
65 9.01178 -0.07563 19.51679 0 0 0
66 9.91296 0.20087 19.85059 0 0 0
67 10.81413 0.05003 20.25695 0 0 0
68 11.71531 0.32653 20.59076 0 0 0
69 12.61649 0.17569 20.99712 0 0 0
70 13.51767 0.45219 21.33092 0 0 0
71 14.41885 0.30135 21.73728 0 0 0
72 15.32002 0.57785 22.07109 0 0 0
73 16.22120 0.42702 22.47745 0 0 0
74 17.12238 0.70352 22.81125 0 0 0
75 17.51805 -0.03610 23.35569 0 0 0
76 17.91372 -0.94884 23.45738 0 0 0
77 18.30940 -1.31715 24.29869 0 0 0
78 18.70507 -2.22989 24.40038 0 0 0
79 19.10074 -2.59819 25.24169 0 0 0
80 19.49641 -3.51094 25.34338 0 0 0
81 19.89209 -3.87924 26.18469 0 0 0
82 20.28776 -4.79199 26.28638 0 0 0
83 20.68343 -5.16029 27.12768 0 0 0
84 21.07910 -6.07304 27.22938 0 0 0
85 21.47478 -6.44134 28.07068 0 0 0
86 21.87045 -7.35408 28.17237 0 0 0
87 22.26612 -7.72239 29.01368 0 0 0
88 22.66179 -8.63513 29.11537 0 0 0
89 23.05747 -9.00344 29.95668 0 0 0
90 23.45314 -9.91618 30.05837 0 0 0
91 23.84881 -10.28449 30.89967 0 0 0
92 24.24448 -11.19723 31.00137 0 0 0
93 17.03159 1.52229 23.37815 0 0 0
94 16.94080 1.94792 24.27848 0 0 0
95 16.85002 2.94045 24.36003 0 0 0
96 16.75923 3.36608 25.26036 0 0 0
97 16.66844 4.35861 25.34192 0 0 0
98 16.57765 4.78424 26.24225 0 0 0
99 16.48687 5.77676 26.32380 0 0 0
100 16.39608 6.20240 27.22414 0 0 0
101 16.30529 7.19492 27.30569 0 0 0
102 16.21450 7.62055 28.20602 0 0 0
103 16.12372 8.61308 28.28758 0 0 0
104 16.03293 9.03871 29.18791 0 0 0
105 15.94214 10.03124 29.26946 0 0 0
106 15.85136 10.45687 30.16980 0 0 0
107 15.76057 11.44939 30.25135 0 0 0
108 15.66978 11.87503 31.15168 0 0 0
109 15.57899 12.86755 31.23324 0 0 0
110 15.48821 13.29319 32.13357 0 0 0
111 17.71995 0.90125 22.03420 0 0 0
112 18.31752 1.46101 21.46012 0 0 0
113 18.91510 1.24373 20.68831 0 0 0
114 19.51267 1.80349 20.11423 0 0 0
115 20.11024 1.58621 19.34242 0 0 0
116 20.70782 2.14597 18.76834 0 0 0
117 21.30539 1.92869 17.99652 0 0 0
118 21.90296 2.48846 17.42244 0 0 0
119 22.50054 2.27117 16.65063 0 0 0
120 23.09811 2.83094 16.07655 0 0 0
121 23.69568 2.61365 15.30474 0 0 0
122 24.29325 3.17342 14.73066 0 0 0
123 24.89083 2.95613 13.95885 0 0 0
124 25.48840 3.51590 13.38477 0 0 0
125 26.08597 3.29861 12.61295 0 0 0
126 26.68355 3.85838 12.03887 0 0 0
127 27.28112 3.64109 11.26706 0 0 0
128 27.87869 4.20086 10.69298 0 0 0
129 28.47627 3.98357 9.92117 0 0 0
130 28.20563 4.52660 9.12626 0 0 0
131 27.93499 5.39432 8.70935 0 0 0
132 27.66436 5.46714 7.74943 0 0 0
133 27.39372 6.33486 7.33253 0 0 0
134 27.12309 6.40768 6.37260 0 0 0
135 26.85245 7.27540 5.95570 0 0 0
136 26.58182 7.34822 4.99578 0 0 0
137 26.31118 8.21594 4.57887 0 0 0
138 26.04054 8.28876 3.61895 0 0 0
139 25.76991 9.15648 3.20205 0 0 0
140 25.49927 9.22930 2.24212 0 0 0
141 25.22864 10.09703 1.82522 0 0 0
142 24.95800 10.16984 0.86530 0 0 0
143 24.68737 11.03757 0.44839 0 0 0
144 24.41673 11.11038 -0.51153 0 0 0
145 24.14609 11.97811 -0.92843 0 0 0
146 23.87546 12.05092 -1.88836 0 0 0
147 23.60482 12.91865 -2.30526 0 0 0
148 28.39825 3.01099 9.70208 0 0 0
149 28.32024 2.27826 9.02605 0 0 0
150 28.24222 1.32644 9.32260 0 0 0
151 28.16421 0.59370 8.64657 0 0 0
152 28.08620 -0.35812 8.94312 0 0 0
153 28.00818 -1.09086 8.26709 0 0 0
154 27.93017 -2.04268 8.56364 0 0 0
155 27.85216 -2.77541 7.88761 0 0 0
156 27.77414 -3.72724 8.18416 0 0 0
157 27.69613 -4.45997 7.50813 0 0 0
158 27.61811 -5.41180 7.80468 0 0 0
159 27.54010 -6.14453 7.12865 0 0 0
160 27.46209 -7.09636 7.42520 0 0 0
161 27.38407 -7.82909 6.74917 0 0 0
162 27.30606 -8.78091 7.04572 0 0 0
163 27.22805 -9.51365 6.36969 0 0 0
164 27.15003 -10.46547 6.66624 0 0 0
165 27.07202 -11.19821 5.99021 0 0 0
166 29.42334 4.19554 10.16226 0 0 0
167 30.37041 4.25856 10.47704 0 0 0
168 31.31748 4.56267 10.57985 0 0 0
169 32.26455 4.62569 10.89463 0 0 0
170 33.21162 4.92981 10.99744 0 0 0
171 34.15869 4.99282 11.31222 0 0 0
172 35.10576 5.29694 11.41503 0 0 0
173 36.05283 5.35996 11.72981 0 0 0
174 36.99991 5.66407 11.83262 0 0 0
175 37.94698 5.72709 12.14740 0 0 0
176 38.89405 6.03121 12.25021 0 0 0
177 39.84112 6.09423 12.56499 0 0 0
178 40.78819 6.39834 12.66780 0 0 0
179 41.73526 6.46136 12.98258 0 0 0
180 42.68233 6.76547 13.08539 0 0 0
181 43.62940 6.82849 13.40017 0 0 0
182 44.57648 7.13261 13.50298 0 0 0
183 45.52355 7.19563 13.81776 0 0 0
184 46.47062 7.49974 13.92057 0 0 0
185 46.59010 8.38032 13.46198 0 0 0
186 46.70958 9.37222 13.50512 0 0 0
187 46.82907 9.90553 12.66768 0 0 0
188 46.94855 10.89743 12.71082 0 0 0
189 47.06803 11.43073 11.87338 0 0 0
190 47.18752 12.42263 11.91652 0 0 0
191 47.30700 12.95594 11.07908 0 0 0
192 47.42648 13.94784 11.12221 0 0 0
193 47.54596 14.48115 10.28477 0 0 0
194 47.66545 15.47305 10.32791 0 0 0
195 47.78493 16.00635 9.49047 0 0 0
196 47.90441 16.99825 9.53361 0 0 0
197 48.02390 17.53156 8.69617 0 0 0
198 48.14338 18.52346 8.73931 0 0 0
199 48.26286 19.05677 7.90187 0 0 0
200 48.38235 20.04867 7.94501 0 0 0
201 48.50183 20.58197 7.10757 0 0 0
202 48.62131 21.57387 7.15070 0 0 0
203 47.08427 6.82496 13.51058 0 0 0
204 47.69792 6.44557 12.81812 0 0 0
205 48.31157 5.65620 12.80044 0 0 0
206 48.92522 5.27681 12.10798 0 0 0
207 49.53888 4.48743 12.09031 0 0 0
208 50.15253 4.10805 11.39785 0 0 0
209 50.76618 3.31867 11.38017 0 0 0
210 51.37983 2.93929 10.68771 0 0 0
211 51.99348 2.14991 10.67003 0 0 0
212 52.60713 1.77053 9.97757 0 0 0
213 53.22078 0.98115 9.95990 0 0 0
214 53.83444 0.60177 9.26744 0 0 0
215 54.44809 -0.18761 9.24976 0 0 0
216 55.06174 -0.56700 8.55730 0 0 0
217 55.67539 -1.35637 8.53963 0 0 0
218 56.28904 -1.73576 7.84717 0 0 0
219 56.90269 -2.52514 7.82949 0 0 0
220 57.51634 -2.90452 7.13703 0 0 0
221 46.68590 7.59849 14.89212 0 0 0
222 46.90118 7.19824 15.78288 0 0 0
223 47.11646 7.76954 16.57489 0 0 0
224 47.33175 7.36929 17.46565 0 0 0
225 47.54703 7.94058 18.25765 0 0 0
226 47.76231 7.54033 19.14841 0 0 0
227 47.97759 8.11163 19.94042 0 0 0
228 48.19288 7.71138 20.83118 0 0 0
229 48.40816 8.28267 21.62319 0 0 0
230 48.62344 7.88242 22.51395 0 0 0
231 48.83872 8.45372 23.30595 0 0 0
232 49.05400 8.05347 24.19671 0 0 0
233 49.26929 8.62476 24.98872 0 0 0
234 49.48457 8.22451 25.87948 0 0 0
235 49.69985 8.79581 26.67149 0 0 0
236 49.91513 8.39556 27.56225 0 0 0
237 50.13041 8.96685 28.35425 0 0 0
238 50.34570 8.56660 29.24501 0 0 0
239 50.56098 9.13790 30.03702 0 0 0
240 49.72191 9.55622 30.38482 0 0 0
241 48.88283 9.74459 30.89519 0 0 0
242 48.04376 10.28076 30.98724 0 0 0
243 47.20468 10.46913 31.49760 0 0 0
244 46.36561 11.00531 31.58965 0 0 0
245 45.52654 11.19368 32.10001 0 0 0
246 44.68746 11.72985 32.19206 0 0 0
247 43.84839 11.91822 32.70242 0 0 0
248 43.00932 12.45440 32.79447 0 0 0
249 42.17024 12.64277 33.30483 0 0 0
250 41.33117 13.17894 33.39688 0 0 0
251 40.49210 13.36731 33.90725 0 0 0
252 39.65302 13.90349 33.99929 0 0 0
253 38.81395 14.09186 34.50966 0 0 0
254 37.97487 14.62803 34.60171 0 0 0
255 37.13580 14.81641 35.11207 0 0 0
256 36.29673 15.35258 35.20412 0 0 0
257 35.45765 15.54095 35.71448 0 0 0
258 51.20315 9.85516 29.76656 0 0 0
259 51.84533 10.61155 29.89096 0 0 0
260 52.48751 11.09749 29.29810 0 0 0
261 53.12968 11.85388 29.42250 0 0 0
262 53.77186 12.33982 28.82965 0 0 0
263 54.41403 13.09621 28.95405 0 0 0
264 55.05621 13.58214 28.36119 0 0 0
265 55.69839 14.33854 28.48559 0 0 0
266 56.34056 14.82447 27.89273 0 0 0
267 56.98274 15.58087 28.01713 0 0 0
268 57.62491 16.06680 27.42428 0 0 0
269 58.26709 16.82320 27.54868 0 0 0
270 58.90926 17.30913 26.95582 0 0 0
271 59.55144 18.06552 27.08022 0 0 0
272 60.19362 18.55146 26.48737 0 0 0
273 60.83579 19.30785 26.61177 0 0 0
274 61.47797 19.79379 26.01891 0 0 0
275 62.12014 20.55018 26.14331 0 0 0
276 50.97346 8.57443 30.75281 0 0 0
277 51.38595 7.72856 31.09097 0 0 0
278 51.79844 7.59848 31.99260 0 0 0
279 52.21092 6.75260 32.33076 0 0 0
280 52.62341 6.62252 33.23239 0 0 0
281 53.03589 5.77665 33.57055 0 0 0
282 53.44838 5.64657 34.47218 0 0 0
283 53.86087 4.80069 34.81034 0 0 0
284 54.27335 4.67061 35.71197 0 0 0
285 54.68584 3.82474 36.05013 0 0 0
286 55.09832 3.69465 36.95176 0 0 0
287 55.51081 2.84878 37.28992 0 0 0
288 55.92330 2.71870 38.19155 0 0 0
289 56.33578 1.87283 38.52971 0 0 0
290 56.74827 1.74274 39.43134 0 0 0
291 57.16075 0.89687 39.76950 0 0 0
292 57.57324 0.76679 40.67113 0 0 0
293 57.98573 -0.07909 41.00929 0 0 0
ITEM: TIMESTEP
1000
ITEM: NUMBER OF ATOMS
293
ITEM: BOX BOUNDS pp pp pp
-1.0000000000000000e+03 1.0000000000000000e+03
-1.0000000000000000e+03 1.0000000000000000e+03
-1.0000000000000000e+03 1.0000000000000000e+03
ITEM: ATOMS id x y z ix iy iz
1 -4.32614 0.14585 4.44480 0 0 0
2 -3.55387 -0.22313 4.86422 0 0 0
3 -2.71308 -0.05533 5.16164 0 0 0
4 -1.70444 0.15604 5.52561 0 0 0
5 -0.94297 0.47107 6.10512 0 0 0
6 -1.36284 0.19286 7.05210 0 0 0
7 -1.33594 -0.50385 7.75389 0 0 0
8 -0.96711 -0.66057 8.70584 0 0 0
9 -0.30362 -0.66001 9.34966 0 0 0
10 -0.03453 -0.71352 10.30057 0 0 0
11 0.01639 -1.24106 11.12546 0 0 0
12 0.84944 -1.52456 11.56991 0 0 0
13 0.92537 -2.30107 12.17735 0 0 0
14 0.88982 -1.96254 13.16241 0 0 0
15 0.37569 -1.85862 14.04944 0 0 0
16 1.19714 -1.33223 14.61055 0 0 0
17 1.32183 -1.27862 15.60478 0 0 0
18 1.55075 -0.43527 16.24922 0 0 0
19 0.87414 -1.06078 16.57324 0 0 0
20 0.33686 -1.75399 16.34089 0 0 0
21 -0.26854 -2.54111 16.18512 0 0 0
22 -0.10042 -3.15592 15.44304 0 0 0
23 -0.52718 -3.35065 14.54155 0 0 0
24 -1.10045 -3.76574 13.83663 0 0 0
25 -1.40109 -4.62892 14.08284 0 0 0
26 -1.61942 -5.33285 14.66904 0 0 0
27 -1.47555 -6.22259 15.14653 0 0 0
28 -1.42394 -7.20271 15.10092 0 0 0
29 -1.69695 -8.09209 14.70355 0 0 0
30 -2.49507 -8.48584 14.37141 0 0 0
31 -2.79687 -9.35952 14.68928 0 0 0
32 -2.86956 -10.00390 15.41854 0 0 0
33 -3.30059 -10.84004 15.48370 0 0 0
34 -4.15770 -11.24745 15.78902 0 0 0
35 -4.41878 -11.94358 15.27942 0 0 0
36 -4.73598 -12.78982 14.92758 0 0 0
37 -4.54395 -12.93568 14.02329 0 0 0
38 0.46945 -0.96447 17.49072 0 0 0
39 0.21259 -0.26743 18.04513 0 0 0
40 -0.14688 0.35850 18.76440 0 0 0
41 -0.67622 0.23245 19.62963 0 0 0
42 -1.42621 0.19980 19.03936 0 0 0
43 -2.25893 0.68773 19.21932 0 0 0
44 -3.07729 1.30141 19.31060 0 0 0
45 -3.36071 1.43577 20.24782 0 0 0
46 -3.79515 1.25831 21.05614 0 0 0
47 -4.65471 1.84482 21.28159 0 0 0
48 -5.63670 2.01528 21.26273 0 0 0
49 -5.78553 1.07699 21.34648 0 0 0
50 -6.42884 1.64430 21.80267 0 0 0
51 -7.04059 2.05633 22.42659 0 0 0
52 -7.98708 2.39719 22.46545 0 0 0
53 -7.71681 3.13894 23.10148 0 0 0
54 -7.63836 4.03318 23.73193 0 0 0
55 -6.92645 4.14219 23.09377 0 0 0
56 1.75373 -1.35629 16.81055 0 0 0
57 2.59871 -1.00203 17.29362 0 0 0
58 3.55930 -0.71443 17.48457 0 0 0
59 4.42888 -0.28001 17.71455 0 0 0
60 5.36609 -0.47073 17.42231 0 0 0
61 6.14069 -0.31359 18.06997 0 0 0
62 7.11958 -0.40444 18.12027 0 0 0
63 7.97832 -0.52321 18.67502 0 0 0
64 8.95989 -0.42693 18.97169 0 0 0
65 9.91905 -0.78568 19.15033 0 0 0
66 10.82063 -0.60833 18.98222 0 0 0
67 11.23332 -0.40661 19.85393 0 0 0
68 12.13345 -0.30312 20.19416 0 0 0
69 13.14965 -0.29955 19.99658 0 0 0
70 14.09281 -0.07506 19.77711 0 0 0
71 15.03505 0.13939 19.79429 0 0 0
72 15.95412 -0.18949 19.64673 0 0 0
73 16.52794 0.26703 20.23398 0 0 0
74 17.11036 0.58516 20.97951 0 0 0
75 18.03295 0.34741 21.16202 0 0 0
76 18.30140 -0.34835 21.84566 0 0 0
77 18.86990 -1.10434 22.37601 0 0 0
78 19.81873 -0.99898 22.58933 0 0 0
79 20.76593 -1.27569 22.55103 0 0 0
80 21.29746 -1.88405 23.25183 0 0 0
81 20.69899 -2.62768 23.49880 0 0 0
82 20.56417 -3.48880 23.92713 0 0 0
83 20.87612 -3.65212 24.88605 0 0 0
84 20.23549 -4.34881 25.27339 0 0 0
85 20.70676 -4.89314 25.89156 0 0 0
86 21.49287 -4.91188 26.39432 0 0 0
87 21.61108 -5.83931 26.58912 0 0 0
88 21.28285 -6.46687 27.23863 0 0 0
89 21.40182 -7.35466 27.62962 0 0 0
90 21.75890 -8.31462 27.85251 0 0 0
91 22.21772 -7.82436 28.56305 0 0 0
92 22.76653 -8.37544 29.07396 0 0 0
93 16.81312 0.91694 21.80374 0 0 0
94 16.07604 1.50052 22.20618 0 0 0
95 15.79749 1.79413 23.04170 0 0 0
96 15.22322 2.12986 23.84418 0 0 0
97 14.73856 1.71347 24.58172 0 0 0
98 14.14337 2.40780 24.33836 0 0 0
99 14.35710 3.36309 24.51598 0 0 0
100 14.87549 4.04123 24.97290 0 0 0
101 15.11268 4.77231 25.56121 0 0 0
102 15.48589 5.47242 25.02851 0 0 0
103 15.91135 6.06151 25.71988 0 0 0
104 16.32134 6.66397 26.38008 0 0 0
105 16.48233 7.39235 27.06492 0 0 0
106 16.66937 8.18348 27.49838 0 0 0
107 17.29223 8.87916 27.15359 0 0 0
108 17.22206 9.78615 26.72300 0 0 0
109 17.35549 10.48685 27.31692 0 0 0
110 18.12598 9.95956 27.39921 0 0 0
111 17.72146 1.11865 20.40057 0 0 0
112 18.20281 1.70253 19.82983 0 0 0
113 18.54086 2.01169 19.01893 0 0 0
114 19.49257 1.72593 18.66067 0 0 0
115 19.97984 1.55621 17.86632 0 0 0
116 20.83661 1.20521 17.80806 0 0 0
117 21.68353 1.40422 17.31283 0 0 0
118 22.42527 1.91973 16.87512 0 0 0
119 23.35917 2.10456 16.80244 0 0 0
120 23.90102 2.42874 15.96721 0 0 0
121 24.67001 2.28751 15.53585 0 0 0
122 25.22295 2.38800 14.73324 0 0 0
123 25.91498 2.62594 14.02780 0 0 0
124 26.67171 2.38908 13.57614 0 0 0
125 27.55593 2.68861 13.25383 0 0 0
126 28.38094 2.45093 12.86285 0 0 0
127 29.19377 2.96782 12.77847 0 0 0
128 29.24632 3.37342 11.84153 0 0 0
129 29.72532 3.62386 10.93288 0 0 0
130 29.48657 4.18559 10.24419 0 0 0
131 29.40207 4.89895 9.57271 0 0 0
132 29.21995 5.18994 8.67368 0 0 0
133 28.86685 5.54960 7.81104 0 0 0
134 28.08956 5.95155 7.31005 0 0 0
135 27.85898 6.55170 6.52252 0 0 0
136 27.55758 6.93809 5.72063 0 0 0
137 26.99377 7.29042 4.89848 0 0 0
138 26.36353 7.90611 4.46024 0 0 0
139 26.40323 8.09852 3.39668 0 0 0
140 25.60847 8.03628 2.83355 0 0 0
141 24.83896 8.53315 2.36117 0 0 0
142 24.13033 8.58685 1.74542 0 0 0
143 24.05440 8.96179 0.79666 0 0 0
144 24.41997 9.87225 0.74167 0 0 0
145 24.12939 9.93088 -0.16872 0 0 0
146 23.76698 10.81509 -0.18654 0 0 0
147 23.47114 11.63384 0.20983 0 0 0
148 29.14990 2.88915 10.65217 0 0 0
149 29.26319 2.13569 10.03651 0 0 0
150 29.52267 1.42366 9.37597 0 0 0
151 30.15940 1.11039 10.09387 0 0 0
152 29.38696 0.65725 10.01851 0 0 0
153 28.93006 0.06357 9.28681 0 0 0
154 28.86156 -0.90558 9.06230 0 0 0
155 29.06948 -1.59382 8.39943 0 0 0
156 29.04568 -1.21987 7.39570 0 0 0
157 28.05494 -1.21518 7.48044 0 0 0
158 27.79123 -2.18744 7.45050 0 0 0
159 27.94627 -3.03615 6.96470 0 0 0
160 27.38705 -3.92204 6.71885 0 0 0
161 26.96805 -4.46062 7.41766 0 0 0
162 26.88314 -5.40929 7.59327 0 0 0
163 25.92484 -5.63768 7.70366 0 0 0
164 25.28591 -6.11386 8.33348 0 0 0
165 24.77228 -6.40412 9.14141 0 0 0
166 30.60150 3.66980 10.44946 0 0 0
167 31.10263 4.38661 9.90210 0 0 0
168 32.00369 4.82308 10.31773 0 0 0
169 32.89658 5.22630 10.19027 0 0 0
170 33.79951 5.42060 9.98282 0 0 0
171 34.73853 5.74470 10.11631 0 0 0
172 35.39855 6.14644 10.64924 0 0 0
173 35.90715 6.19241 11.42400 0 0 0
174 36.80987 6.60149 11.73680 0 0 0
175 37.53309 6.40893 12.48494 0 0 0
176 38.35594 6.52331 13.12244 0 0 0
177 39.27932 6.59068 13.32887 0 0 0
178 40.23260 6.65560 13.54256 0 0 0
179 41.21712 6.67320 13.60020 0 0 0
180 41.99898 6.68464 14.19656 0 0 0
181 42.46998 7.31888 14.76128 0 0 0
182 43.31170 7.27224 14.29671 0 0 0
183 44.00249 8.00404 14.26735 0 0 0
184 44.74999 8.62721 14.26983 0 0 0
185 44.62465 9.08384 13.48000 0 0 0
186 45.03026 9.66716 12.75716 0 0 0
187 45.60161 10.19156 13.34274 0 0 0
188 45.76945 11.06420 13.61920 0 0 0
189 45.91742 12.00746 13.36007 0 0 0
190 46.17916 12.86594 13.05977 0 0 0
191 45.82526 13.69320 13.56604 0 0 0
192 46.15668 14.46618 12.90704 0 0 0
193 46.83366 14.78433 12.24495 0 0 0
194 46.84797 15.29175 11.38226 0 0 0
195 46.86940 15.02507 10.38376 0 0 0
196 46.63963 15.51872 9.54290 0 0 0
197 46.08810 16.34429 9.43225 0 0 0
198 46.15854 17.28220 9.33616 0 0 0
199 46.62359 18.03943 9.74910 0 0 0
200 46.72904 18.94250 9.37880 0 0 0
201 46.78582 19.44434 8.53062 0 0 0
202 46.69364 19.13538 7.63397 0 0 0
203 45.51532 8.58994 13.61071 0 0 0
204 45.72451 7.71673 13.20531 0 0 0
205 46.74552 7.71498 13.15334 0 0 0
206 47.76609 7.80285 12.94116 0 0 0
207 48.00233 7.20885 12.20669 0 0 0
208 48.91918 6.99544 12.43540 0 0 0
209 49.34779 6.16453 12.42409 0 0 0
210 49.92441 5.58963 11.93684 0 0 0
211 50.00869 4.61586 11.75424 0 0 0
212 49.93744 4.21502 10.88174 0 0 0
213 50.19959 3.33558 10.53534 0 0 0
214 50.93479 2.63708 10.15570 0 0 0
215 51.59893 1.94714 10.30801 0 0 0
216 52.12967 2.34662 9.56125 0 0 0
217 52.70459 2.54363 8.81951 0 0 0
218 53.00135 2.43306 7.84585 0 0 0
219 53.80287 2.86202 8.22634 0 0 0
220 54.23252 1.97555 8.01393 0 0 0
221 45.32462 8.96345 15.13511 0 0 0
222 45.86089 9.12590 15.93395 0 0 0
223 46.33947 9.43984 16.66720 0 0 0
224 47.17631 9.47705 17.15373 0 0 0
225 47.38033 9.75838 18.11267 0 0 0
226 47.07130 9.16347 18.79346 0 0 0
227 47.36635 8.82050 19.70026 0 0 0
228 47.93905 8.77344 20.51301 0 0 0
229 47.94192 8.60186 21.45843 0 0 0
230 48.59111 8.80990 22.12855 0 0 0
231 48.70237 8.69988 23.07401 0 0 0
232 48.26117 8.94567 23.96048 0 0 0
233 48.51719 8.42353 24.76189 0 0 0
234 48.89847 8.47553 25.61851 0 0 0
235 49.47591 8.66571 26.39910 0 0 0
236 49.43742 9.18675 27.31055 0 0 0
237 48.82801 9.12977 28.03810 0 0 0
238 49.04749 10.08123 28.31091 0 0 0
239 49.49338 9.73544 29.07591 0 0 0
240 48.70781 9.87772 29.63344 0 0 0
241 47.73890 9.90122 29.82669 0 0 0
242 46.92685 9.39985 30.20908 0 0 0
243 46.48854 9.95250 30.97615 0 0 0
244 45.89430 9.35188 31.43142 0 0 0
245 45.01382 9.69378 31.65340 0 0 0
246 44.58023 9.70553 32.53728 0 0 0
247 43.67926 9.84332 32.28009 0 0 0
248 43.17340 10.73045 32.29474 0 0 0
249 43.26429 11.24445 33.17071 0 0 0
250 43.45520 12.12115 33.47657 0 0 0
251 43.34033 12.63631 34.28215 0 0 0
252 42.49714 12.42072 34.66799 0 0 0
253 43.22501 12.69179 35.32739 0 0 0
254 43.08254 13.63947 35.59270 0 0 0
255 42.79761 14.16638 36.36598 0 0 0
256 41.94440 14.04030 35.86447 0 0 0
257 41.61607 13.40946 35.14352 0 0 0
258 50.49727 9.96629 28.92469 0 0 0
259 51.43534 10.30936 28.83676 0 0 0
260 51.88473 10.93195 29.32634 0 0 0
261 52.38521 11.25282 30.07388 0 0 0
262 52.92362 11.82635 30.72289 0 0 0
263 53.61623 12.39118 30.39144 0 0 0
264 54.49182 12.72317 30.11732 0 0 0
265 54.88941 13.60474 29.88277 0 0 0
266 54.86987 14.43328 29.36245 0 0 0
267 55.13577 15.20558 29.82392 0 0 0
268 55.91621 15.18336 29.12302 0 0 0
269 55.71212 16.13775 29.05822 0 0 0
270 56.33345 16.50791 29.74787 0 0 0
271 56.96543 16.62585 30.46693 0 0 0
272 57.39453 16.94893 29.53367 0 0 0
273 57.32963 17.47353 28.72644 0 0 0
274 56.58349 17.56929 28.07220 0 0 0
275 56.51788 16.62478 28.33589 0 0 0
276 50.14298 9.10322 29.40467 0 0 0
277 50.04279 8.18544 29.56737 0 0 0
278 50.60996 7.34483 29.61307 0 0 0
279 51.65773 6.99422 29.73849 0 0 0
280 51.52544 6.41266 30.49197 0 0 0
281 51.85657 5.97804 31.31276 0 0 0
282 51.14263 5.72136 32.01007 0 0 0
283 50.93188 4.96694 32.75797 0 0 0
284 50.67299 4.49972 33.54106 0 0 0
285 51.02738 4.69688 34.43490 0 0 0
286 51.50824 5.30362 35.05879 0 0 0
287 52.15776 5.01924 35.68142 0 0 0
288 51.82688 4.45636 36.33825 0 0 0
289 52.17840 3.92027 35.57033 0 0 0
290 52.41813 3.00237 35.83934 0 0 0
291 52.89715 3.35453 36.58295 0 0 0
292 52.39933 3.47789 37.47956 0 0 0
293 51.62576 4.06082 37.79486 0 0 0
ITEM: TIMESTEP
2000
ITEM: NUMBER OF ATOMS
293
ITEM: BOX BOUNDS pp pp pp
-1.0000000000000000e+03 1.0000000000000000e+03
-1.0000000000000000e+03 1.0000000000000000e+03
-1.0000000000000000e+03 1.0000000000000000e+03
ITEM: ATOMS id x y z ix iy iz
1 -3.31478 -1.18230 7.28803 0 0 0
2 -3.32953 -0.25769 7.52235 0 0 0
3 -3.10398 -0.28188 8.48550 0 0 0
4 -2.64321 -0.12414 9.38082 0 0 0
5 -1.66419 -0.29515 9.49218 0 0 0
6 -1.39497 0.43171 10.16894 0 0 0
7 -0.50969 0.21863 10.51003 0 0 0
8 0.44642 0.34685 10.41844 0 0 0
9 0.41275 -0.52210 10.90370 0 0 0
10 1.27205 -0.89843 10.70481 0 0 0
11 1.23997 -1.36743 11.58124 0 0 0
12 1.71258 -0.84003 12.27923 0 0 0
13 0.81943 -0.89243 12.60907 0 0 0
14 0.46239 -0.15439 13.26422 0 0 0
15 0.60530 0.30840 14.06138 0 0 0
16 0.90283 0.03286 14.96560 0 0 0
17 1.91049 -0.25246 14.96871 0 0 0
18 2.46858 -0.57498 15.63139 0 0 0
19 2.26888 -1.20340 16.42579 0 0 0
20 1.72147 -1.82092 15.90190 0 0 0
21 1.43656 -1.99197 14.99076 0 0 0
22 1.60338 -2.05474 13.95853 0 0 0
23 1.41853 -2.91621 14.25671 0 0 0
24 0.61854 -3.07125 13.83511 0 0 0
25 -0.01982 -3.85773 14.12013 0 0 0
26 -0.84708 -4.13550 14.50088 0 0 0
27 -1.72783 -4.70369 14.79712 0 0 0
28 -2.42671 -5.36802 14.92149 0 0 0
29 -3.08561 -6.12594 14.85180 0 0 0
30 -3.39155 -7.10630 14.92249 0 0 0
31 -3.63091 -8.03432 15.18019 0 0 0
32 -2.89674 -8.63963 15.15350 0 0 0
33 -2.33996 -9.18920 14.57285 0 0 0
34 -1.48073 -8.96878 14.13019 0 0 0
35 -0.82327 -8.27665 14.38814 0 0 0
36 -1.34617 -7.86707 15.11895 0 0 0
37 -1.19373 -7.92008 16.15013 0 0 0
38 1.49745 -0.62111 16.48586 0 0 0
39 1.65716 0.40452 16.55894 0 0 0
40 2.34612 0.84683 17.23827 0 0 0
41 2.40808 1.68189 17.76920 0 0 0
42 1.85806 2.22573 18.30570 0 0 0
43 1.50920 2.80229 18.96808 0 0 0
44 1.07090 3.25141 19.76548 0 0 0
45 0.12625 3.30495 19.96792 0 0 0
46 -0.70681 3.73856 20.06621 0 0 0
47 -1.16693 3.43016 20.84477 0 0 0
48 -1.98059 3.20409 21.33736 0 0 0
49 -2.70607 2.59687 20.84553 0 0 0
50 -2.98021 1.84634 21.34612 0 0 0
51 -3.49016 1.77933 20.45385 0 0 0
52 -4.41686 1.68033 19.92121 0 0 0
53 -5.11914 1.94160 20.49734 0 0 0
54 -5.95916 2.28867 20.72255 0 0 0
55 -6.78435 2.93051 20.74704 0 0 0
56 3.24803 -1.18098 16.71373 0 0 0
57 4.14296 -1.68870 16.63853 0 0 0
58 4.71105 -1.59333 17.47356 0 0 0
59 5.59047 -1.26219 17.85938 0 0 0
60 6.57132 -1.23140 17.96607 0 0 0
61 7.40328 -0.77445 18.19323 0 0 0
62 8.02533 -0.08967 18.56199 0 0 0
63 8.78075 0.13135 19.12809 0 0 0
64 9.13632 0.70805 19.78996 0 0 0
65 9.90644 1.28801 20.14023 0 0 0
66 10.73977 1.50799 19.69758 0 0 0
67 11.52825 2.09176 19.69829 0 0 0
68 12.33730 1.88986 20.27533 0 0 0
69 13.03375 1.08547 20.17729 0 0 0
70 13.92539 1.00492 20.55723 0 0 0
71 14.84355 1.01354 20.96630 0 0 0
72 15.74485 0.98696 20.67606 0 0 0
73 16.60261 1.10737 20.29912 0 0 0
74 17.50804 0.91727 20.67464 0 0 0
75 17.92041 0.61309 21.49419 0 0 0
76 18.86927 0.34352 21.54395 0 0 0
77 18.54426 0.38488 22.47070 0 0 0
78 18.73738 1.15675 23.13546 0 0 0
79 18.82077 0.13236 23.50260 0 0 0
80 19.04143 -0.88690 23.48487 0 0 0
81 19.65325 -1.25956 24.17642 0 0 0
82 20.25685 -1.88987 24.70915 0 0 0
83 20.98044 -2.05554 25.43852 0 0 0
84 21.59014 -2.82392 25.29097 0 0 0
85 22.06500 -3.65211 24.93395 0 0 0
86 22.96870 -4.02426 24.93282 0 0 0
87 23.46523 -4.78536 24.87827 0 0 0
88 23.27908 -5.53819 24.33668 0 0 0
89 24.29235 -5.43331 24.46418 0 0 0
90 25.27914 -5.45787 24.10769 0 0 0
91 25.76695 -6.31473 23.91722 0 0 0
92 26.31929 -6.93105 24.58040 0 0 0
93 17.82017 1.85262 20.72893 0 0 0
94 17.88131 2.25476 21.66211 0 0 0
95 17.69358 2.64998 22.47966 0 0 0
96 17.63675 3.50189 22.84196 0 0 0
97 16.96826 3.95636 23.27629 0 0 0
98 16.36878 3.90489 24.07375 0 0 0
99 15.92608 3.99606 24.94236 0 0 0
100 15.19733 3.83797 24.40787 0 0 0
101 14.29104 4.34381 24.32325 0 0 0
102 13.95141 4.50859 25.25607 0 0 0
103 13.91099 5.55880 25.25317 0 0 0
104 14.24194 6.49552 25.19201 0 0 0
105 14.78477 6.29493 26.00274 0 0 0
106 13.92043 6.57878 26.61294 0 0 0
107 14.45366 7.39078 26.69256 0 0 0
108 15.40826 7.56852 27.00158 0 0 0
109 16.24857 7.33981 27.42813 0 0 0
110 16.72788 6.52857 27.64371 0 0 0
111 18.40880 0.68278 20.38107 0 0 0
112 19.02075 1.05182 19.61377 0 0 0
113 19.96585 1.09792 19.28219 0 0 0
114 20.72628 1.47708 18.76616 0 0 0
115 21.31930 1.98728 18.06698 0 0 0
116 21.96362 2.52796 17.49695 0 0 0
117 22.47232 3.03654 16.81470 0 0 0
118 23.24472 2.99751 16.12435 0 0 0
119 23.97930 3.35203 15.50793 0 0 0
120 24.53677 3.79429 14.80604 0 0 0
121 25.15391 3.80837 14.04030 0 0 0
122 26.03580 3.63531 13.81235 0 0 0
123 27.04807 3.52597 14.02692 0 0 0
124 27.79179 3.05202 13.78948 0 0 0
125 28.53161 3.22949 13.27340 0 0 0
126 29.04681 3.18959 12.40371 0 0 0
127 29.52192 2.97512 11.48422 0 0 0
128 30.43033 3.36713 10.97361 0 0 0
129 31.38821 3.55571 10.57086 0 0 0
130 31.51836 4.01884 9.79614 0 0 0
131 30.61802 4.38154 9.61203 0 0 0
132 30.05466 5.16290 9.60153 0 0 0
133 29.72056 5.66872 8.86858 0 0 0
134 29.99519 6.30063 8.13625 0 0 0
135 29.42082 6.17173 7.39323 0 0 0
136 29.11943 7.19621 7.23947 0 0 0
137 28.19511 7.34099 7.18175 0 0 0
138 27.65965 7.10136 6.39180 0 0 0
139 27.47144 7.84554 5.66364 0 0 0
140 27.89843 8.55928 4.91536 0 0 0
141 27.53435 9.25265 4.38983 0 0 0
142 27.19230 8.75832 3.68715 0 0 0
143 27.18972 8.45165 2.79777 0 0 0
144 27.70170 8.41558 1.92576 0 0 0
145 27.36579 8.62508 1.05722 0 0 0
146 27.54800 8.71640 0.09765 0 0 0
147 27.45642 9.13016 -0.80523 0 0 0
148 31.58366 2.65707 10.13763 0 0 0
149 32.06640 2.06146 9.58446 0 0 0
150 31.82725 1.43878 8.88136 0 0 0
151 31.80173 0.44756 8.85203 0 0 0
152 31.36710 -0.16891 9.46434 0 0 0
153 31.53849 -1.09277 9.70712 0 0 0
154 31.18936 -1.71183 10.35611 0 0 0
155 30.40444 -2.30970 10.57772 0 0 0
156 29.88969 -2.67474 9.84873 0 0 0
157 30.04841 -2.04256 9.11410 0 0 0
158 29.48685 -2.11890 8.31118 0 0 0
159 28.89257 -1.83322 7.62221 0 0 0
160 27.96352 -2.11202 7.95953 0 0 0
161 27.09345 -2.55785 7.80624 0 0 0
162 26.50909 -3.32603 7.82871 0 0 0
163 26.71478 -3.22736 8.77161 0 0 0
164 26.52962 -3.99557 9.49434 0 0 0
165 25.98843 -4.50467 10.14469 0 0 0
166 32.14781 4.02568 11.14536 0 0 0
167 32.89017 4.75584 11.41951 0 0 0
168 33.45061 4.89985 12.26195 0 0 0
169 33.52591 5.80456 12.72892 0 0 0
170 34.42714 6.13656 13.16432 0 0 0
171 35.36881 5.72145 13.18274 0 0 0
172 36.01953 5.50621 12.50453 0 0 0
173 36.86305 5.05726 12.23497 0 0 0
174 37.73588 5.16065 12.70098 0 0 0
175 38.67995 5.41887 12.71780 0 0 0
176 39.56928 5.77396 12.77965 0 0 0
177 40.22174 5.67272 13.47553 0 0 0
178 41.14702 6.07384 13.41803 0 0 0
179 41.78427 5.40407 13.16865 0 0 0
180 42.07100 6.39958 12.95163 0 0 0
181 41.66947 7.04559 13.61224 0 0 0
182 42.54876 7.46568 13.67547 0 0 0
183 43.39549 7.81364 14.02573 0 0 0
184 43.95241 8.46836 14.62398 0 0 0
185 43.36061 9.26089 14.50843 0 0 0
186 43.50982 10.05964 13.87290 0 0 0
187 44.20938 10.48130 13.14595 0 0 0
188 44.46614 11.49361 13.18121 0 0 0
189 44.44732 12.47141 13.11239 0 0 0
190 44.99219 13.25560 13.48503 0 0 0
191 45.91273 13.65198 13.31147 0 0 0
192 46.83697 13.51832 12.92141 0 0 0
193 47.43129 14.26130 12.54881 0 0 0
194 47.80177 15.12022 12.81755 0 0 0
195 46.95327 15.59592 13.27889 0 0 0
196 47.18085 16.19090 12.50837 0 0 0
197 46.46483 16.85433 12.40337 0 0 0
198 47.07076 16.74015 11.69551 0 0 0
199 47.06898 17.72044 11.90668 0 0 0
200 47.17855 18.67890 11.70220 0 0 0
201 46.79344 19.44878 12.13821 0 0 0
202 46.04195 18.79799 12.13643 0 0 0
203 44.56679 7.82252 14.03504 0 0 0
204 44.70461 7.35765 13.23222 0 0 0
205 45.31200 7.28837 12.48606 0 0 0
206 45.22477 6.33912 12.81405 0 0 0
207 45.78938 6.28817 12.00431 0 0 0
208 46.47681 6.96237 12.11250 0 0 0
209 47.42213 6.93883 11.74917 0 0 0
210 48.21626 6.65598 11.38612 0 0 0
211 48.91969 6.21980 10.91800 0 0 0
212 49.52146 5.40753 11.22763 0 0 0
213 49.44665 4.56015 11.73494 0 0 0
214 50.09787 4.42337 11.12143 0 0 0
215 51.07648 4.51846 11.20586 0 0 0
216 51.73454 3.84170 11.33727 0 0 0
217 52.02618 3.02040 10.95699 0 0 0
218 52.87061 2.66480 11.26095 0 0 0
219 53.75046 2.26427 10.97943 0 0 0
220 54.72165 1.97696 10.75235 0 0 0
221 44.50496 8.09057 15.38152 0 0 0
222 45.18898 8.11353 16.03100 0 0 0
223 46.00012 8.28277 16.57533 0 0 0
224 46.14946 9.24767 16.63365 0 0 0
225 46.66396 8.99294 17.62756 0 0 0
226 45.95165 8.85506 18.25176 0 0 0
227 46.79267 8.88458 18.81744 0 0 0
228 47.45417 8.68158 19.43096 0 0 0
229 47.77811 8.44953 20.31873 0 0 0
230 48.17888 8.89245 21.08294 0 0 0
231 48.95413 9.06292 21.56394 0 0 0
232 49.39453 9.58799 22.26096 0 0 0