ITEM: TIMESTEP
0
ITEM: NUMBER OF ATOMS
97
ITEM: BOX BOUNDS pp pp pp
-1.0000000000000000e+03 1.0000000000000000e+03
-1.0000000000000000e+03 1.0000000000000000e+03
-1.0000000000000000e+03 1.0000000000000000e+03
ITEM: ATOMS id x y z ix iy iz
1 0.00000 0.00000 0.00000 0 0 0
2 0.00000 0.00000 1.00000 0 0 0
3 0.00000 -0.50000 1.86603 0 0 0
4 0.00000 0.00000 2.73205 0 0 0
5 0.00000 -0.50000 3.59808 0 0 0
6 0.00000 0.00000 4.46410 0 0 0
7 0.00000 -0.50000 5.33013 0 0 0
8 -0.85250 -1.01527 5.41808 0 0 0
9 -1.70501 -1.50548 5.23662 0 0 0
10 -2.55751 -1.90774 5.57043 0 0 0
11 -3.41002 -2.39795 5.38897 0 0 0
12 -4.26252 -2.80021 5.72278 0 0 0
13 -5.11502 -3.29042 5.54132 0 0 0
14 0.07789 0.14666 6.08892 0 0 0
15 0.15578 0.32728 7.06938 0 0 0
16 0.23366 1.26670 7.40319 0 0 0
17 0.31155 1.44732 8.38365 0 0 0
18 0.38944 2.38674 8.71746 0 0 0
19 0.46733 2.56736 9.69793 0 0 0
20 0.77462 -1.13210 5.35063 0 0 0
21 1.54923 -1.68977 5.05234 0 0 0
22 2.32385 -2.22693 5.38615 0 0 0
23 3.09846 -2.78459 5.08785 0 0 0
24 3.87308 -3.32176 5.42166 0 0 0
25 4.64770 -3.87942 5.12337 0 0 0
26 4.31547 -4.76314 4.79372 0 0 0
27 3.98325 -5.36364 4.06638 0 0 0
28 3.65103 -6.29379 4.22276 0 0 0
29 3.31881 -6.89429 3.49541 0 0 0
30 2.98658 -7.82444 3.65179 0 0 0
31 2.65436 -8.42494 2.92445 0 0 0
32 5.27075 -4.02375 5.89211 0 0 0
33 5.89381 -4.53312 6.48570 0 0 0
34 6.51686 -4.27374 7.22362 0 0 0
35 7.13992 -4.78311 7.81721 0 0 0
36 7.76298 -4.52373 8.55512 0 0 0
37 8.38603 -5.03310 9.14871 0 0 0
38 5.13258 -3.40983 4.38555 0 0 0
39 5.61746 -2.63424 3.98138 0 0 0
40 6.10234 -2.59647 3.10762 0 0 0
41 6.58723 -1.82088 2.70345 0 0 0
42 7.07211 -1.78311 1.82969 0 0 0
43 7.55699 -1.00753 1.42551 0 0 0
44 7.82181 -1.23147 0.48758 0 0 0
45 8.08664 -0.95644 -0.43666 0 0 0
46 8.35146 -1.61934 -1.13697 0 0 0
47 8.61628 -1.34432 -2.06121 0 0 0
48 8.88110 -2.00722 -2.76152 0 0 0
49 9.14592 -1.73219 -3.68576 0 0 0
50 8.37574 -0.80838 1.96402 0 0 0
51 9.19449 -0.90516 2.52996 0 0 0
52 10.01324 -0.46344 2.89674 0 0 0
53 10.83199 -0.56022 3.46268 0 0 0
54 11.65074 -0.11850 3.82946 0 0 0
55 12.46949 -0.21528 4.39540 0 0 0
56 6.95899 -0.20605 1.42020 0 0 0
57 6.36100 0.49071 1.81633 0 0 0
58 5.76300 1.18216 1.41099 0 0 0
59 5.16500 1.87892 1.80712 0 0 0
60 4.56700 2.57036 1.40178 0 0 0
61 3.96900 3.26712 1.79791 0 0 0
62 3.63025 2.95154 2.68428 0 0 0
63 3.29151 2.23505 3.29411 0 0 0
64 2.95276 2.40493 4.21953 0 0 0
65 2.61401 1.68844 4.82936 0 0 0
66 2.27527 1.85832 5.75477 0 0 0
67 1.93652 1.14183 6.36460 0 0 0
68 3.19584 3.43096 1.18523 0 0 0
69 2.42267 3.87919 0.73656 0 0 0
70 1.64951 3.71475 0.12405 0 0 0
71 0.87635 4.16298 -0.32463 0 0 0
72 0.10318 3.99853 -0.93714 0 0 0
73 -0.66998 4.44676 -1.38581 0 0 0
74 4.48206 4.11661 1.92091 0 0 0
75 4.99513 4.79079 2.45218 0 0 0
76 5.50819 5.58798 2.13396 0 0 0
77 6.02125 6.26216 2.66523 0 0 0
78 6.53432 7.05934 2.34700 0 0 0
79 7.04738 7.73352 2.87827 0 0 0
80 7.90097 7.95180 2.40526 0 0 0
81 8.75456 8.37733 2.10476 0 0 0
82 9.60815 8.32986 1.58598 0 0 0
83 10.46174 8.75540 1.28548 0 0 0
84 11.31533 8.70793 0.76670 0 0 0
85 12.16892 9.13346 0.46620 0 0 0
86 7.25408 7.35905 3.78218 0 0 0
87 7.46078 6.58280 4.37775 0 0 0
88 7.66748 6.71045 5.34779 0 0 0
89 7.87418 5.93420 5.94336 0 0 0
90 8.08088 6.06185 6.91340 0 0 0
91 8.28757 5.28560 7.50898 0 0 0
92 6.50088 8.56485 2.97940 0 0 0
93 5.95438 9.23424 3.48264 0 0 0
94 5.40789 10.00476 3.15456 0 0 0
95 4.86139 10.67415 3.65780 0 0 0
96 4.31489 11.44467 3.32972 0 0 0
97 3.76839 12.11406 3.83296 0 0 0
ITEM: TIMESTEP
1000
ITEM: NUMBER OF ATOMS
97
ITEM: BOX BOUNDS pp pp pp
-1.0000000000000000e+03 1.0000000000000000e+03
-1.0000000000000000e+03 1.0000000000000000e+03
-1.0000000000000000e+03 1.0000000000000000e+03
ITEM: ATOMS id x y z ix iy iz
1 -0.84692 -2.46082 3.14328 0 0 0
2 -1.05361 -2.79911 3.98685 0 0 0
3 -0.29194 -2.28571 4.38821 0 0 0
4 -0.62353 -1.39994 4.10385 0 0 0
5 -0.80644 -0.65663 4.68309 0 0 0
6 0.01569 -0.53380 5.30153 0 0 0
7 -0.46242 -0.80402 6.08511 0 0 0
8 -1.35952 -1.19071 5.90380 0 0 0
9 -1.37742 -1.95535 5.38426 0 0 0
10 -2.19731 -2.43227 5.26098 0 0 0
11 -1.63167 -3.18498 5.50138 0 0 0
12 -1.43051 -4.00108 5.09829 0 0 0
13 -2.43069 -4.01263 4.86651 0 0 0
14 0.10763 -0.09914 6.34811 0 0 0
15 0.64008 0.40530 5.76089 0 0 0
16 1.56005 0.48942 6.01027 0 0 0
17 2.44394 0.63748 5.44636 0 0 0
18 1.57179 0.81510 4.90902 0 0 0
19 1.15022 0.97926 4.02410 0 0 0
20 -0.23766 -1.74826 5.95611 0 0 0
21 0.68315 -1.98044 6.24218 0 0 0
22 1.61167 -1.97379 6.06791 0 0 0
23 1.95766 -2.60960 5.39066 0 0 0
24 2.95736 -2.58064 5.52245 0 0 0
25 3.05941 -3.06507 4.67777 0 0 0
26 2.34534 -3.55837 4.21850 0 0 0
27 1.57617 -2.90630 4.10908 0 0 0
28 1.07594 -2.44348 4.72873 0 0 0
29 0.45867 -2.99046 5.26743 0 0 0
30 0.34577 -4.01258 5.28017 0 0 0
31 -0.44845 -4.55230 5.56136 0 0 0
32 3.43827 -3.56099 5.49580 0 0 0
33 3.20246 -4.40801 5.94224 0 0 0
34 3.73997 -3.77697 6.50845 0 0 0
35 4.27061 -2.99690 6.26033 0 0 0
36 4.74028 -2.26232 6.74014 0 0 0
37 4.01403 -1.66061 6.21960 0 0 0
38 3.74331 -2.66015 4.07297 0 0 0
39 3.92340 -1.69302 4.31581 0 0 0
40 3.83197 -0.82254 4.82650 0 0 0
41 4.01016 -0.32377 4.06004 0 0 0
42 4.39485 -0.07073 3.20401 0 0 0
43 5.04219 -0.07934 2.45907 0 0 0
44 5.55765 -0.80212 2.12437 0 0 0
45 5.36028 -1.52310 1.36319 0 0 0
46 5.67896 -0.98806 0.59208 0 0 0
47 6.20692 -0.55877 -0.19665 0 0 0
48 6.31871 -0.18728 -1.21681 0 0 0
49 6.03176 -0.19910 -2.14239 0 0 0
50 5.69317 -0.56409 3.11705 0 0 0
51 6.51749 -0.96702 2.85472 0 0 0
52 7.13978 -0.63394 2.15676 0 0 0
53 7.97684 -0.83736 2.66825 0 0 0
54 8.90389 -1.04315 2.35587 0 0 0
55 8.92992 -1.83667 1.85112 0 0 0
56 5.31526 0.78184 2.14870 0 0 0
57 5.50017 1.47488 1.41985 0 0 0
58 6.06663 2.23535 1.57098 0 0 0
59 5.53943 2.01888 2.38730 0 0 0
60 4.66875 2.31265 2.10523 0 0 0
61 3.82293 2.63936 1.61236 0 0 0
62 3.98765 1.68417 1.39253 0 0 0
63 3.21860 1.45382 1.95312 0 0 0
64 2.78873 2.26965 2.29409 0 0 0
65 2.48533 2.80066 3.04684 0 0 0
66 2.29376 3.70708 3.34045 0 0 0
67 2.07808 2.91711 3.92169 0 0 0
68 3.26235 3.29103 1.13263 0 0 0
69 2.87098 3.75479 0.32476 0 0 0
70 1.96808 4.05704 -0.08248 0 0 0
71 1.78616 3.73777 0.79589 0 0 0
72 1.26509 3.21423 0.00804 0 0 0
73 0.52432 2.73854 0.41673 0 0 0
74 3.65939 3.39783 2.25305 0 0 0
75 4.07054 4.37739 2.53451 0 0 0
76 4.35763 5.28378 2.42973 0 0 0
77 4.95396 6.07749 2.44864 0 0 0
78 5.32508 6.83675 2.77789 0 0 0
79 6.05116 7.02464 3.44408 0 0 0
80 6.86075 7.31512 2.98141 0 0 0
81 7.48601 7.99957 3.31070 0 0 0
82 8.42861 8.16205 3.51477 0 0 0
83 8.60209 7.35858 3.08304 0 0 0
84 9.18244 6.59785 3.04552 0 0 0
85 8.51143 6.05140 2.73410 0 0 0
86 5.54775 6.18114 3.68153 0 0 0
87 4.82018 6.52746 4.25005 0 0 0
88 4.33957 7.28698 4.71323 0 0 0
89 4.75776 7.02025 5.50973 0 0 0
90 4.81875 7.28553 6.46488 0 0 0
91 5.13630 7.83349 7.14840 0 0 0
92 5.75507 7.88788 3.19766 0 0 0
93 5.56579 8.77613 2.84147 0 0 0
94 6.28794 8.57763 2.22170 0 0 0
95 7.14782 8.50044 1.76543 0 0 0
96 7.68754 8.09933 1.07225 0 0 0
97 8.45067 7.43361 1.10989 0 0 0
ITEM: TIMESTEP
2000
ITEM: NUMBER OF ATOMS
97
ITEM: BOX BOUNDS pp pp pp
-1.0000000000000000e+03 1.0000000000000000e+03
-1.0000000000000000e+03 1.0000000000000000e+03
-1.0000000000000000e+03 1.0000000000000000e+03
ITEM: ATOMS id x y z ix iy iz
1 -1.35122 -1.32263 2.50935 0 0 0
2 -2.22955 -1.66961 2.94396 0 0 0
3 -1.95810 -2.51720 3.35141 0 0 0
4 -1.81310 -3.05916 4.09773 0 0 0
5 -0.97657 -2.68778 4.42971 0 0 0
6 -0.35846 -2.44047 5.17439 0 0 0
7 -0.62695 -1.81674 5.87981 0 0 0
8 -1.54858 -1.73417 5.64727 0 0 0
9 -2.33026 -1.31591 6.10672 0 0 0
10 -2.50906 -1.67246 7.02111 0 0 0
11 -3.16112 -2.43919 7.00431 0 0 0
12 -3.82145 -2.14493 7.64656 0 0 0
13 -4.15624 -2.05822 8.59529 0 0 0
14 -0.65296 -1.19224 5.15780 0 0 0
15 0.13503 -0.59130 5.15616 0 0 0
16 0.51452 -0.11032 5.92339 0 0 0
17 0.95738 0.03443 6.80929 0 0 0
18 0.13231 0.51444 6.60681 0 0 0
19 -0.40116 1.27383 6.29296 0 0 0
20 0.01351 -1.71387 6.68886 0 0 0
21 0.21278 -2.66166 6.78795 0 0 0
22 0.92451 -2.38564 6.07593 0 0 0
23 1.58463 -1.56685 5.98933 0 0 0
24 2.30321 -1.27991 5.39743 0 0 0
25 3.24944 -1.04800 5.49846 0 0 0
26 3.34862 -1.03280 6.42341 0 0 0
27 4.08848 -1.75565 6.36770 0 0 0
28 3.54173 -2.42371 5.82260 0 0 0
29 3.43650 -3.38171 5.90131 0 0 0
30 2.79826 -3.89873 6.45544 0 0 0
31 3.31898 -3.36122 7.18638 0 0 0
32 4.05594 -0.44161 5.74751 0 0 0
33 4.21213 0.17882 5.05433 0 0 0
34 4.83002 -0.41602 4.73273 0 0 0
35 5.29288 -0.38655 3.82855 0 0 0
36 6.00697 0.12097 3.19805 0 0 0
37 6.33202 -0.46562 3.84576 0 0 0
38 3.23453 -0.53157 4.62164 0 0 0
39 3.80803 -0.12792 3.85509 0 0 0
40 3.37600 -0.23349 2.99771 0 0 0
41 4.27448 -0.21975 2.42109 0 0 0
42 4.97653 0.54295 2.17786 0 0 0
43 5.69737 0.54511 1.40575 0 0 0
44 5.94599 0.10695 0.54995 0 0 0
45 5.12507 -0.21647 0.01074 0 0 0
46 4.55615 -0.93739 -0.29415 0 0 0
47 4.02675 -0.13967 -0.24370 0 0 0
48 4.27037 0.59827 -0.79621 0 0 0
49 4.70312 0.90106 -1.61869 0 0 0
50 6.05303 -0.34401 1.46504 0 0 0
51 6.38666 -1.12608 1.90243 0 0 0
52 6.71861 -1.49754 2.80993 0 0 0
53 6.85680 -1.54919 3.78896 0 0 0
54 6.91304 -1.72670 4.72609 0 0 0
55 6.89518 -1.73796 5.67945 0 0 0
56 5.59218 1.41901 1.05545 0 0 0
57 5.51129 2.38094 1.36031 0 0 0
58 5.74897 3.13185 1.94032 0 0 0
59 4.75113 3.30528 2.19682 0 0 0
60 4.09704 3.86525 1.79156 0 0 0
61 3.17475 4.20047 1.63430 0 0 0
62 2.27111 4.07445 1.89709 0 0 0
63 2.30362 4.00526 2.91877 0 0 0
64 3.34954 4.30529 2.98640 0 0 0
65 3.46655 4.04185 3.92296 0 0 0
66 3.33352 4.63643 4.73129 0 0 0
67 3.00122 5.49919 5.16790 0 0 0
68 2.80525 3.83598 0.80806 0 0 0
69 3.45228 3.85674 0.02121 0 0 0
70 2.68121 4.12141 -0.48931 0 0 0
71 1.81034 3.65901 -0.79140 0 0 0
72 1.33633 3.35705 -1.56685 0 0 0
73 1.85390 3.65543 -2.31511 0 0 0
74 3.78080 4.49325 0.96126 0 0 0
75 4.27784 5.30023 1.04660 0 0 0
76 5.05686 5.95098 1.26441 0 0 0
77 5.79524 5.19981 1.42721 0 0 0
78 6.14525 5.41570 2.37398 0 0 0
79 6.57762 5.89218 3.10850 0 0 0
80 6.50219 6.54871 2.35583 0 0 0
81 7.22272 7.17539 2.27246 0 0 0
82 8.21507 6.89351 2.10877 0 0 0
83 8.74819 7.04918 1.32447 0 0 0
84 9.67512 7.02174 1.71088 0 0 0
85 10.13634 6.28926 1.96809 0 0 0
86 6.73979 5.57979 4.02114 0 0 0
87 6.95657 6.44110 4.53512 0 0 0
88 7.32436 5.60515 5.02753 0 0 0
89 7.23468 5.74408 5.98996 0 0 0
90 6.64868 5.19970 6.64349 0 0 0
91 7.39373 4.60692 6.35438 0 0 0
92 6.92620 6.73190 3.48116 0 0 0
93 6.77644 7.70283 3.75996 0 0 0
94 6.77969 8.52758 3.33679 0 0 0
95 7.18984 9.21321 2.74170 0 0 0
96 7.98657 9.33038 2.12521 0 0 0
97 7.80459 9.57312 1.18244 0 0 0
ITEM: TIMESTEP
3000
ITEM: NUMBER OF ATOMS
97
ITEM: BOX BOUNDS pp pp pp
-1.0000000000000000e+03 1.0000000000000000e+03
-1.0000000000000000e+03 1.0000000000000000e+03
-1.0000000000000000e+03 1.0000000000000000e+03
ITEM: ATOMS id x y z ix iy iz
1 -1.63674 -1.67122 1.97190 0 0 0
2 -1.30783 -2.30967 2.58312 0 0 0
3 -1.24676 -3.14024 3.08324 0 0 0
4 -0.36806 -2.79640 3.03966 0 0 0
5 -0.66517 -2.11775 3.67802 0 0 0
6 -0.19875 -1.77238 4.53904 0 0 0
7 0.60672 -1.34065 4.93227 0 0 0
8 0.42069 -1.19748 5.88227 0 0 0
9 -0.52786 -1.06300 6.05784 0 0 0
10 -0.45357 -0.71504 7.00106 0 0 0
11 -0.26684 -0.79045 7.95763 0 0 0
12 0.00996 -0.76998 8.92260 0 0 0
13 -0.38020 -1.66976 8.71993 0 0 0
14 0.24056 -0.46813 4.98620 0 0 0
15 -0.02066 0.21835 5.52709 0 0 0
16 -0.53534 1.04238 6.00347 0 0 0
17 -0.31316 2.00285 5.81631 0 0 0
18 0.11934 2.22817 6.65655 0 0 0
19 0.42973 2.45663 7.60037 0 0 0
20 1.26867 -2.09366 4.91726 0 0 0
21 1.84114 -2.76274 4.49146 0 0 0
22 2.41576 -2.06810 4.85134 0 0 0
23 2.57045 -1.24914 4.32234 0 0 0
24 3.13028 -0.46874 4.14034 0 0 0
25 3.74629 0.01801 4.79869 0 0 0
26 3.00357 -0.47378 5.35714 0 0 0
27 2.84659 0.02146 6.18728 0 0 0
28 3.67224 -0.36290 6.57263 0 0 0
29 3.82782 -1.25807 6.74126 0 0 0
30 4.78745 -1.45059 6.90635 0 0 0
31 5.67185 -1.32335 6.67644 0 0 0
32 3.92222 0.97714 4.67528 0 0 0
33 4.71623 1.11996 4.13836 0 0 0
34 5.17387 0.49639 4.77933 0 0 0
35 5.85037 -0.17666 4.99716 0 0 0
36 6.73553 -0.46907 5.30546 0 0 0
37 7.08244 0.19205 4.60732 0 0 0
38 3.92721 0.27185 3.84722 0 0 0
39 4.06706 -0.44691 3.15397 0 0 0
40 3.87854 -0.93400 2.27937 0 0 0
41 4.55757 -1.16670 1.67776 0 0 0
42 4.98311 -1.14210 0.80670 0 0 0
43 5.00549 -0.55354 0.02025 0 0 0
44 4.96573 -1.43511 -0.39830 0 0 0
45 4.19354 -1.67319 0.11629 0 0 0
46 3.66693 -0.88659 0.23684 0 0 0
47 2.79868 -1.26901 -0.03566 0 0 0
48 2.36961 -1.94640 0.53199 0 0 0
49 1.42716 -1.70276 0.30011 0 0 0
50 5.95887 -0.61551 -0.11973 0 0 0
51 6.84864 -0.60221 0.32012 0 0 0
52 7.71723 -0.31285 0.53649 0 0 0
53 7.64570 -0.66003 1.44762 0 0 0
54 6.99755 -1.32161 1.18380 0 0 0
55 6.61173 -1.86853 0.44321 0 0 0
56 4.48343 0.10948 -0.38293 0 0 0
57 4.72882 0.84323 0.21484 0 0 0
58 4.72674 1.76650 0.34206 0 0 0
59 4.91239 2.62427 0.79974 0 0 0
60 4.83579 3.03499 1.66456 0 0 0
61 4.10464 3.71963 1.52739 0 0 0
62 4.07162 3.97797 2.50821 0 0 0
63 3.74891 4.78859 2.89690 0 0 0
64 3.29016 4.03416 3.24081 0 0 0
65 2.96233 4.32938 4.12603 0 0 0
66 2.23730 3.95153 4.68074 0 0 0
67 1.91105 3.40558 5.39138 0 0 0
68 3.33218 3.57510 0.94849 0 0 0
69 2.81264 2.78495 0.86943 0 0 0
70 2.19244 2.08846 1.18236 0 0 0
71 2.10224 1.17678 1.42921 0 0 0
72 1.28688 1.13223 0.98007 0 0 0
73 0.31564 0.88467 1.18581 0 0 0
74 4.64335 4.33541 1.05070 0 0 0
75 4.16982 5.00871 0.52865 0 0 0
76 4.41472 5.41324 1.37597 0 0 0
77 5.03851 5.67769 2.11390 0 0 0
78 5.42558 6.37284 2.72171 0 0 0
79 6.31226 6.23200 3.23390 0 0 0
80 7.14349 6.56768 2.67575 0 0 0
81 7.95726 7.13053 2.39027 0 0 0
82 7.83465 7.99678 1.87990 0 0 0
83 7.93961 8.91675 1.53298 0 0 0
84 8.08613 8.97696 0.56269 0 0 0
85 8.94192 9.21368 0.82262 0 0 0
86 5.77397 5.35497 3.44202 0 0 0
87 5.95338 5.18434 4.38236 0 0 0
88 6.25808 4.33351 4.82455 0 0 0
89 7.09987 4.44651 5.33151 0 0 0
90 7.09541 3.57637 5.08590 0 0 0
91 7.44975 3.07152 5.80980 0 0 0
92 6.39849 6.94912 3.93657 0 0 0
93 7.25203 7.49774 3.92441 0 0 0
94 7.10235 7.31132 4.86628 0 0 0
95 6.33406 7.69708 5.35528 0 0 0
96 5.66661 8.29619 5.71705 0 0 0
97 5.47703 8.05242 4.81864 0 0 0
ITEM: TIMESTEP
4000
ITEM: NUMBER OF ATOMS
97
ITEM: BOX BOUNDS pp pp pp
-1.0000000000000000e+03 1.0000000000000000e+03
-1.0000000000000000e+03 1.0000000000000000e+03
-1.0000000000000000e+03 1.0000000000000000e+03
ITEM: ATOMS id x y z ix iy iz
1 0.01692 0.25486 4.00514 0 0 0
2 -0.86058 0.53292 4.18819 0 0 0
3 -1.14453 -0.20091 4.70825 0 0 0
4 -1.25624 -1.17805 4.81593 0 0 0
5 -0.83613 -1.44935 5.63724 0 0 0
6 -0.17769 -0.86541 5.18185 0 0 0
7 0.70412 -0.52246 5.26759 0 0 0
8 1.02596 -0.97059 6.07945 0 0 0
9 1.21487 -1.28564 7.01045 0 0 0
10 1.69575 -1.70188 7.71290 0 0 0
11 2.03812 -2.32799 8.45084 0 0 0
12 2.81494 -1.78275 8.84392 0 0 0
13 3.36141 -2.49608 9.17595 0 0 0
14 0.81312 0.39382 5.59774 0 0 0
15 0.35719 1.16550 6.01447 0 0 0
16 0.27479 1.83637 6.74547 0 0 0
17 -0.80539 1.91880 6.59622 0 0 0
18 -1.70737 2.29695 6.69666 0 0 0
19 -2.45449 2.30142 6.08009 0 0 0
20 1.68617 -0.93761 5.11693 0 0 0
21 1.44353 -1.11917 4.11198 0 0 0
22 1.90703 -1.13799 3.24755 0 0 0
23 2.86156 -1.01685 2.91687 0 0 0
24 3.71320 -1.11953 3.40483 0 0 0
25 4.34007 -0.73565 4.03485 0 0 0
26 4.02094 -0.75815 4.93569 0 0 0
27 4.33041 -0.17064 5.62319 0 0 0
28 3.98481 0.02755 6.51234 0 0 0
29 3.81098 0.42223 7.42158 0 0 0
30 3.31063 -0.37676 7.58531 0 0 0
31 3.09784 -1.39890 7.87967 0 0 0
32 4.94201 -1.42849 4.39085 0 0 0
33 5.75550 -1.74392 3.83673 0 0 0
34 6.52556 -1.09030 3.75521 0 0 0
35 7.24724 -0.33905 3.85590 0 0 0
36 8.20091 -0.00885 3.78047 0 0 0
37 8.95901 0.55217 3.58999 0 0 0
38 4.84036 -0.34695 3.27077 0 0 0
39 5.17060 0.13296 2.48364 0 0 0
40 4.36158 -0.30829 2.01920 0 0 0
41 4.30547 0.72649 1.82885 0 0 0
42 5.18251 0.88885 1.48356 0 0 0
43 6.14690 0.78687 1.28597 0 0 0
44 6.12404 0.13135 0.59338 0 0 0
45 5.24424 -0.34157 0.47193 0 0 0
46 4.27112 -0.34018 0.49648 0 0 0
47 4.21235 0.35346 -0.21125 0 0 0
48 4.15548 0.21629 -1.15507 0 0 0
49 4.48270 -0.37834 -1.89027 0 0 0
50 7.04789 0.58979 0.99012 0 0 0
51 7.77694 0.18197 1.53714 0 0 0
52 7.60414 -0.25713 2.46401 0 0 0
53 7.19963 -1.04090 1.95316 0 0 0
54 6.46552 -1.66834 2.04523 0 0 0
55 5.68522 -1.22459 1.63734 0 0 0
56 6.24063 1.74145 1.30465 0 0 0
57 6.51698 2.44888 1.92181 0 0 0
58 5.98410 3.09192 1.45632 0 0 0
59 5.18672 2.57902 1.44929 0 0 0
60 4.95623 2.21364 2.34386 0 0 0
61 4.35898 2.79838 2.86219 0 0 0
62 4.46048 2.84991 3.85833 0 0 0
63 4.84316 3.45557 4.56530 0 0 0
64 4.86771 4.45569 4.54109 0 0 0
65 4.20497 5.07408 4.97138 0 0 0
66 4.33646 5.82161 4.29128 0 0 0
67 4.31935 6.85261 4.17883 0 0 0
68 3.97135 2.24199 2.22352 0 0 0
69 3.47834 1.81933 1.47155 0 0 0
70 2.57048 2.11187 1.68858 0 0 0
71 2.94706 2.31378 2.70945 0 0 0
72 2.76919 1.46815 3.10401 0 0 0
73 2.56379 1.11052 3.99757 0 0 0
74 4.14176 3.71367 2.64793 0 0 0
75 4.93248 4.37633 2.55316 0 0 0
76 5.20064 5.08194 3.13481 0 0 0
77 5.47290 5.54251 3.93306 0 0 0
78 5.66341 5.52944 4.87562 0 0 0
79 6.59160 5.33555 4.59303 0 0 0
80 6.43183 6.30896 4.31845 0 0 0
81 5.89010 6.96100 3.80906 0 0 0
82 6.25026 6.84764 2.89937 0 0 0
83 6.49319 7.72044 2.46499 0 0 0
84 7.22133 7.22240 1.96578 0 0 0
85 7.80496 7.01662 2.80539 0 0 0
86 6.05222 4.66262 4.02856 0 0 0
87 6.75240 4.04143 4.13723 0 0 0
88 6.65746 3.08702 3.92092 0 0 0
89 6.14971 2.37922 3.47922 0 0 0
90 5.61997 1.56618 3.16891 0 0 0
91 4.73939 1.13423 2.79625 0 0 0
92 7.35586 4.65188 4.92472 0 0 0
93 8.09441 4.22241 4.49269 0 0 0
94 8.48201 3.95624 5.34026 0 0 0
95 8.35035 4.16614 6.32182 0 0 0
96 9.09968 4.55385 6.79940 0 0 0
97 9.40250 3.77398 6.21718 0 0 0
ITEM: TIMESTEP
5000
ITEM: NUMBER OF ATOMS
97
ITEM: BOX BOUNDS pp pp pp
-1.0000000000000000e+03 1.0000000000000000e+03
-1.0000000000000000e+03 1.0000000000000000e+03
-1.0000000000000000e+03 1.0000000000000000e+03
ITEM: ATOMS id x y z ix iy iz
1 -0.57614 0.52395 7.95780 0 0 0
2 -0.28141 -0.23101 7.45813 0 0 0
3 -0.57175 -1.09702 7.78575 0 0 0
4 -0.81076 -1.99952 7.49193 0 0 0
5 -0.91944 -1.47754 6.70827 0 0 0
6 0.04420 -1.17445 6.68563 0 0 0
7 0.79450 -0.83179 7.16106 0 0 0
8 0.73379 -0.12090 7.85803 0 0 0
9 1.50187 -0.26202 8.34402 0 0 0
10 1.74535 -0.28147 9.28897 0 0 0
11 2.71921 -0.38085 9.42684 0 0 0
12 3.28081 0.39001 9.82258 0 0 0
13 4.02966 -0.22451 9.71492 0 0 0
14 0.91539 -1.26031 8.04044 0 0 0
15 0.21577 -1.49098 8.70058 0 0 0
16 -0.16751 -0.85418 9.50335 0 0 0
17 -1.03901 -0.94022 9.08963 0 0 0
18 -1.39189 -1.84906 9.38985 0 0 0
19 -0.88087 -2.42457 9.99996 0 0 0
20 0.46304 -0.20849 6.48292 0 0 0
21 1.18424 0.36686 6.03802 0 0 0
22 2.18693 0.03078 6.04895 0 0 0
23 2.54826 0.08758 5.09306 0 0 0
24 2.90257 0.42641 4.26355 0 0 0
25 3.75889 0.59847 3.83344 0 0 0
26 3.80169 0.76959 4.74981 0 0 0
27 4.53947 1.06448 5.33860 0 0 0
28 4.43500 1.12651 6.29486 0 0 0
29 4.85947 0.25588 6.40288 0 0 0
30 5.25810 -0.54735 6.69192 0 0 0
31 5.10449 -1.11531 7.43549 0 0 0
32 4.13098 1.49407 3.75075 0 0 0
33 4.94804 2.07476 3.84166 0 0 0
34 5.55882 1.92858 3.12131 0 0 0
35 6.27258 1.17375 3.06195 0 0 0
36 7.01471 0.55990 3.30313 0 0 0
37 7.22540 -0.35491 3.73541 0 0 0
38 3.90335 0.34918 2.94290 0 0 0
39 4.26894 0.18625 1.98183 0 0 0
40 4.60803 0.99187 1.58322 0 0 0
41 5.55905 1.26128 1.35726 0 0 0
42 5.70413 0.48092 0.69487 0 0 0
43 6.10142 0.91960 -0.09523 0 0 0
44 5.45246 1.24863 -0.80787 0 0 0
45 4.81685 1.57061 -1.47931 0 0 0
46 4.10301 1.23752 -1.94179 0 0 0
47 3.71569 0.93627 -1.11268 0 0 0
48 3.03524 1.70304 -1.16942 0 0 0
49 2.64495 2.67555 -1.10354 0 0 0
50 6.97653 0.81237 0.34227 0 0 0
51 7.99522 0.66062 0.51955 0 0 0
52 8.43892 0.39690 1.36508 0 0 0
53 8.54155 -0.38302 0.74640 0 0 0
54 8.84820 -0.59610 -0.12052 0 0 0
55 9.66431 -0.37754 0.34742 0 0 0
56 5.49277 1.56917 0.22804 0 0 0
57 5.35247 2.44518 0.67347 0 0 0
58 5.13171 2.42396 1.67521 0 0 0
59 4.86891 2.63802 2.62191 0 0 0
60 4.38676 3.57313 2.60034 0 0 0
61 4.20884 4.45262 2.77899 0 0 0
62 3.43291 4.76486 3.27792 0 0 0
63 2.83090 4.95117 4.03162 0 0 0
64 3.49943 5.30568 4.68642 0 0 0
65 3.47437 5.96254 5.37404 0 0 0
66 3.26945 6.86575 5.54047 0 0 0
67 3.75956 7.46016 4.92745 0 0 0
68 3.37960 3.98512 2.34869 0 0 0
69 3.02678 3.05945 2.42812 0 0 0
70 3.40618 2.26880 2.91276 0 0 0
71 3.75006 3.08592 3.44389 0 0 0
72 3.45618 2.94093 4.31355 0 0 0
73 3.44132 2.69454 5.43028 0 0 0
74 5.06036 4.85774 2.89848 0 0 0
75 4.82637 5.65144 2.34360 0 0 0
76 5.14888 6.17619 3.08394 0 0 0
77 5.97747 5.67564 3.40386 0 0 0
78 6.83647 5.59281 3.82286 0 0 0
79 7.00144 4.82480 3.25170 0 0 0
80 7.86453 5.16038 2.87293 0 0 0
81 8.05840 6.16685 2.94974 0 0 0
82 7.90299 7.14308 3.13302 0 0 0
83 7.88611 8.02458 2.85024 0 0 0
84 7.29287 7.85517 2.06603 0 0 0
85 7.23319 8.15386 1.08340 0 0 0
86 6.60460 3.94199 2.92255 0 0 0
87 6.65002 4.20682 2.01576 0 0 0
88 6.23115 3.38073 1.71780 0 0 0
89 6.71841 2.88815 2.39284 0 0 0
90 6.77770 2.50150 1.39203 0 0 0
91 6.86951 1.51382 1.34642 0 0 0
92 7.32130 4.08076 3.84507 0 0 0
93 8.12841 4.00781 4.41447 0 0 0
94 9.05583 3.96682 4.03722 0 0 0
95 9.66354 3.46900 4.55662 0 0 0
96 10.35596 3.54727 3.86425 0 0 0
97 10.34953 4.29259 4.49129 0 0 0
ITEM: TIMESTEP
6000
ITEM: NUMBER OF ATOMS
97
ITEM: BOX BOUNDS pp pp pp
-1.0000000000000000e+03 1.0000000000000000e+03
-1.0000000000000000e+03 1.0000000000000000e+03
-1.0000000000000000e+03 1.0000000000000000e+03
ITEM: ATOMS id x y z ix iy iz
1 -1.66712 -1.91020 8.61253 0 0 0
2 -1.09765 -1.17590 8.53233 0 0 0
3 -1.24773 -0.58908 7.76006 0 0 0
4 -0.85577 -0.50781 6.83849 0 0 0
5 -0.13294 0.21424 6.55275 0 0 0
6 0.72452 0.23616 6.01186 0 0 0
7 1.39858 0.00698 6.76249 0 0 0
8 1.89070 -0.26517 7.53675 0 0 0
9 2.64675 -0.48913 8.10071 0 0 0
10 2.61591 0.08799 9.00581 0 0 0
11 2.29428 1.04057 8.90776 0 0 0
12 1.58590 1.22003 9.50855 0 0 0
13 1.34794 0.25681 9.78919 0 0 0
14 0.85207 0.35550 7.44176 0 0 0
15 0.76321 -0.46514 7.94973 0 0 0
16 0.05433 -1.10103 8.30691 0 0 0
17 0.05124 -1.78087 8.96430 0 0 0
18 -0.28990 -2.22537 9.83860 0 0 0
19 0.14345 -1.59722 10.58269 0 0 0
20 1.85484 0.36348 6.03154 0 0 0
21 2.68408 -0.15845 6.10930 0 0 0
22 3.14062 0.30882 5.39383 0 0 0
23 3.61021 -0.52129 5.48146 0 0 0
24 4.20274 -1.12150 4.99486 0 0 0
25 5.03138 -0.82190 4.55505 0 0 0
26 4.42340 -1.03192 3.81724 0 0 0
27 4.62155 -1.95518 3.48572 0 0 0
28 4.28110 -2.86979 3.45030 0 0 0
29 3.19027 -2.65778 3.50835 0 0 0
30 2.71797 -1.87209 3.46261 0 0 0
31 1.88889 -1.62635 4.07160 0 0 0
32 5.26704 0.00899 5.04389 0 0 0
33 6.26871 0.09958 4.96180 0 0 0
34 7.05339 0.61146 4.57349 0 0 0
35 7.77019 0.65535 3.93126 0 0 0
36 8.11216 0.52160 3.00698 0 0 0
37 8.37620 0.95499 2.06278 0 0 0
38 5.42343 -0.49053 3.64466 0 0 0
39 6.08343 -0.11333 3.03436 0 0 0
40 6.65214 0.32476 2.40558 0 0 0
41 6.24930 0.17075 1.53866 0 0 0
42 6.49587 0.78857 0.82985 0 0 0
43 5.94532 1.51980 0.57460 0 0 0
44 4.99815 1.32263 0.60121 0 0 0
45 4.42969 1.94672 0.14455 0 0 0
46 4.33507 2.48057 -0.75936 0 0 0
47 4.37282 3.18476 -1.39723 0 0 0
48 4.54552 3.69474 -0.55502 0 0 0
49 5.06135 4.07977 0.16688 0 0 0
50 6.81531 1.84659 0.42988 0 0 0
51 7.26571 2.35739 1.23149 0 0 0
52 8.21124 2.20415 1.20308 0 0 0
53 9.13294 1.99779 1.72099 0 0 0
54 10.13604 2.01742 1.89311 0 0 0
55 10.15385 1.97215 0.94326 0 0 0
56 5.62205 2.18587 -0.03556 0 0 0
57 5.75483 3.04156 0.38361 0 0 0
58 5.97091 3.73159 0.96799 0 0 0
59 5.23710 4.41152 1.28404 0 0 0
60 4.67429 5.25584 1.43032 0 0 0
61 4.60387 6.08553 1.84641 0 0 0
62 4.20270 5.23577 2.45148 0 0 0
63 3.56984 5.50819 3.11966 0 0 0
64 3.21904 5.29077 3.96504 0 0 0
65 2.86806 4.57787 3.43298 0 0 0
66 2.47460 4.02653 2.70196 0 0 0
67 1.67865 3.40975 2.83641 0 0 0
68 3.79909 5.90005 1.37644 0 0 0
69 4.06191 5.35671 0.57808 0 0 0
70 3.50626 4.49209 0.34514 0 0 0
71 2.71857 4.12501 -0.30444 0 0 0
72 2.46640 4.28271 -1.24425 0 0 0
73 2.23245 5.24170 -1.53674 0 0 0
74 4.99288 6.98639 1.88817 0 0 0
75 5.93520 6.95839 2.10220 0 0 0
76 6.62912 6.64102 2.65642 0 0 0
77 7.41174 6.83451 3.22158 0 0 0
78 7.74320 6.41524 4.06433 0 0 0
79 8.30168 5.58969 4.18548 0 0 0
80 9.00315 5.29367 3.56270 0 0 0
81 9.75736 5.68155 3.89546 0 0 0
82 9.88611 6.71700 3.99356 0 0 0
83 9.76746 6.73493 3.01878 0 0 0
84 9.85924 7.57785 2.30700 0 0 0
85 9.54627 8.10643 1.59063 0 0 0
86 7.82024 4.73014 4.21535 0 0 0
87 8.33144 3.86540 4.39774 0 0 0
88 9.13788 3.25185 4.63719 0 0 0
89 9.46925 2.30983 4.86390 0 0 0
90 9.08942 2.38166 3.98026 0 0 0
91 8.74561 2.14544 3.06354 0 0 0
92 8.22354 5.58259 5.16784 0 0 0
93 8.96968 6.01973 5.60335 0 0 0
94 9.89632 5.85602 5.30209 0 0 0
95 10.61609 5.94694 4.63877 0 0 0
96 11.38466 5.38890 4.53998 0 0 0
97 11.39222 4.48214 4.15708 0 0 0
ITEM: TIMESTEP
7000
ITEM: NUMBER OF ATOMS
97
ITEM: BOX BOUNDS pp pp pp
-1.0000000000000000e+03 1.0000000000000000e+03
-1.0000000000000000e+03 1.0000000000000000e+03
-1.0000000000000000e+03 1.0000000000000000e+03
ITEM: ATOMS id x y z ix iy iz
1 0.12546 1.95119 8.59723 0 0 0
2 -0.32763 1.33827 9.24138 0 0 0
3 0.45994 0.79301 9.02186 0 0 0
4 0.73528 -0.14256 9.19413 0 0 0
5 1.40891 -0.77945 9.64088 0 0 0
6 2.26679 -1.31048 9.54794 0 0 0
7 2.54188 -0.88042 8.59600 0 0 0
8 3.19040 -0.29932 9.07436 0 0 0
9 4.07621 -0.17164 9.48979 0 0 0
10 4.25428 -1.06989 9.69797 0 0 0
11 4.74792 -1.06274 10.53757 0 0 0
12 5.16643 -0.70048 11.40985 0 0 0
13 4.30338 -0.52707 11.84516 0 0 0
14 2.39773 -0.10675 8.13749 0 0 0
15 2.19629 0.55365 8.88605 0 0 0
16 2.20669 0.63642 9.86096 0 0 0
17 2.98246 0.05535 10.16324 0 0 0
18 2.81749 -0.71343 10.77207 0 0 0
19 2.11271 -1.35504 10.73417 0 0 0
20 2.01955 -0.97005 7.69726 0 0 0
21 2.29633 -0.34895 6.94586 0 0 0
22 3.05424 -0.63665 6.35669 0 0 0
23 3.35881 -0.31044 5.43151 0 0 0
24 3.68124 -1.08359 4.93731 0 0 0
25 4.10181 -1.36919 4.15454 0 0 0
26 3.56153 -2.09466 3.84561 0 0 0
27 2.95336 -2.81137 3.69671 0 0 0
28 2.20597 -2.87014 4.27354 0 0 0
29 1.99546 -3.62171 4.88927 0 0 0
30 1.69917 -4.05908 5.73815 0 0 0
31 1.38120 -3.06809 5.80485 0 0 0
32 4.66269 -2.07473 4.49425 0 0 0
33 5.16946 -1.31952 4.93081 0 0 0
34 5.59551 -0.46936 4.54566 0 0 0
35 6.46580 -0.54627 4.02250 0 0 0
36 7.01953 -0.13695 3.30725 0 0 0
37 7.51117 0.64213 3.09238 0 0 0
38 4.53683 -0.53359 3.98451 0 0 0
39 5.15625 -0.39559 3.25001 0 0 0
40 5.44524 0.21459 2.58619 0 0 0
41 5.71993 0.70033 1.81473 0 0 0
42 6.59820 1.14524 1.69516 0 0 0
43 6.86184 2.06967 1.35430 0 0 0
44 7.10901 2.54068 0.50876 0 0 0
45 7.39626 2.52762 -0.43922 0 0 0
46 7.40807 3.54662 -0.33798 0 0 0
47 7.30727 4.42079 -0.73490 0 0 0
48 8.30960 4.54712 -0.75777 0 0 0
49 8.92597 4.80021 0.00823 0 0 0
50 7.09534 2.51209 2.18877 0 0 0
51 7.42042 1.99138 2.94123 0 0 0
52 8.37282 1.73981 3.07253 0 0 0
53 8.94551 1.18299 3.74681 0 0 0
54 9.25657 1.85168 4.35042 0 0 0
55 8.74183 2.58551 3.89065 0 0 0
56 6.02704 2.13157 0.81633 0 0 0
57 5.15986 2.50393 0.58944 0 0 0
58 4.83237 3.28651 0.89410 0 0 0
59 4.00567 3.65528 0.43462 0 0 0
60 4.25736 4.09828 1.30437 0 0 0
61 4.02501 4.52314 2.20190 0 0 0
62 3.39710 4.55951 2.90110 0 0 0
63 2.37765 4.47782 2.96436 0 0 0
64 1.42490 4.32088 3.16667 0 0 0
65 1.17189 5.11698 3.68160 0 0 0
66 1.38549 5.87609 4.29992 0 0 0
67 1.83653 6.46393 4.87527 0 0 0
68 3.43713 4.98289 1.59005 0 0 0
69 3.42709 5.70949 1.04713 0 0 0
70 2.86973 6.12339 0.33951 0 0 0
71 2.66416 5.85379 -0.64313 0 0 0
72 2.87582 5.22157 -1.34097 0 0 0
73 3.71572 4.93643 -1.60503 0 0 0
74 4.93695 4.92648 2.46487 0 0 0
75 4.84821 5.07984 3.46007 0 0 0
76 5.29023 5.28106 4.34262 0 0 0
77 6.29678 5.46612 4.33658 0 0 0
78 6.67963 4.54582 4.39719 0 0 0
79 7.55351 4.87709 4.45554 0 0 0
80 7.68072 5.74417 4.02597 0 0 0
81 7.80226 6.55694 4.48539 0 0 0
82 8.62517 6.96317 4.31243 0 0 0
83 9.01838 7.26685 3.51537 0 0 0
84 9.54210 8.08823 3.67337 0 0 0
85 9.14668 8.98906 3.67156 0 0 0
86 8.24040 4.32568 4.11887 0 0 0
87 8.84015 3.94116 4.75540 0 0 0
88 9.84039 3.81894 4.79271 0 0 0
89 10.71710 4.27010 5.03030 0 0 0
90 11.22259 3.81969 4.31188 0 0 0
91 11.93913 3.73506 5.00934 0 0 0
92 7.33657 4.68138 5.31564 0 0 0
93 7.82602 4.16866 6.00420 0 0 0
94 8.42449 3.55182 6.56998 0 0 0
95 9.31048 3.99481 6.49285 0 0 0
96 9.90211 3.33751 6.09113 0 0 0
97 9.39146 2.39851 6.06469 0 0 0
ITEM: TIMESTEP
8000
ITEM: NUMBER OF ATOMS
97
ITEM: BOX BOUNDS pp pp pp
-1.0000000000000000e+03 1.0000000000000000e+03
-1.0000000000000000e+03 1.0000000000000000e+03
-1.0000000000000000e+03 1.0000000000000000e+03
ITEM: ATOMS id x y z ix iy iz
1 1.38917 4.66734 8.09573 0 0 0
2 1.64119 3.76021 8.09706 0 0 0
3 1.98908 2.86383 7.94055 0 0 0
4 2.25657 1.95949 7.60182 0 0 0
5 2.87054 1.16675 7.98953 0 0 0
6 3.57964 0.87657 7.42237 0 0 0
7 3.80863 0.31286 6.73869 0 0 0
8 4.76204 0.13451 6.43673 0 0 0
9 5.64873 0.27112 6.90404 0 0 0
10 6.43631 0.48845 7.55210 0 0 0
11 7.35159 0.68911 7.79661 0 0 0
12 7.29707 0.14590 6.99446 0 0 0
13 8.03464 0.52749 6.61317 0 0 0
14 3.46288 -0.55819 6.49209 0 0 0
15 3.22543 -1.16253 7.20429 0 0 0
16 2.98818 -0.91648 8.07666 0 0 0
17 2.94311 -0.88223 9.09893 0 0 0
18 2.55134 -1.44584 9.70389 0 0 0
19 2.11526 -1.45541 8.84875 0 0 0
20 3.88549 0.93020 5.99766 0 0 0
21 4.28419 1.30769 5.24361 0 0 0
22 4.48669 2.06211 4.54882 0 0 0
23 3.75681 2.00658 3.81728 0 0 0
24 3.64697 1.05778 3.44116 0 0 0
25 3.81874 0.27693 2.77327 0 0 0
26 3.31822 -0.47453 2.47103 0 0 0
27 2.42397 -0.82957 2.69267 0 0 0
28 2.25707 -0.47114 3.60006 0 0 0
29 2.33432 -0.88657 4.44108 0 0 0
30 2.14583 -0.48687 5.27454 0 0 0
31 2.28057 -1.42032 5.38237 0 0 0
32 4.50930 -0.49315 2.99037 0 0 0
33 4.35092 -0.74022 3.90640 0 0 0
34 5.21826 -1.06401 3.37168 0 0 0
35 5.73277 -0.24305 3.37352 0 0 0
36 6.58223 0.03005 2.98531 0 0 0
37 7.39700 0.06613 2.35332 0 0 0
38 3.93918 1.14645 2.32694 0 0 0
39 4.69851 1.14858 2.87247 0 0 0
40 5.29418 1.32542 3.64016 0 0 0
41 6.18017 1.56836 3.92581 0 0 0
42 6.59438 1.81845 3.05200 0 0 0
43 6.94049 2.47479 2.38199 0 0 0
44 7.67196 3.16391 2.30036 0 0 0
45 8.04145 3.97963 3.00422 0 0 0
46 8.70410 4.45002 3.57383 0 0 0
47 9.51637 4.85223 3.82603 0 0 0
48 10.03505 5.18785 3.13192 0 0 0
49 10.94254 4.75545 2.98124 0 0 0
50 7.94161 2.12969 2.10311 0 0 0
51 8.33870 2.35908 1.30174 0 0 0
52 9.23420 1.84371 1.59885 0 0 0
53 10.15535 2.11335 1.47147 0 0 0
54 10.96709 2.36241 1.10148 0 0 0
55 10.20687 2.37078 0.43125 0 0 0