ITEM: TIMESTEP
0
ITEM: NUMBER OF ATOMS
193
ITEM: BOX BOUNDS pp pp pp
-1.0000000000000000e+03 1.0000000000000000e+03
-1.0000000000000000e+03 1.0000000000000000e+03
-1.0000000000000000e+03 1.0000000000000000e+03
ITEM: ATOMS id x y z ix iy iz
1 0.00000 0.00000 0.00000 0 0 0
2 0.00000 0.00000 1.00000 0 0 0
3 0.00000 -0.50000 1.86603 0 0 0
4 0.00000 0.00000 2.73205 0 0 0
5 0.00000 -0.50000 3.59808 0 0 0
6 0.00000 0.00000 4.46410 0 0 0
7 0.00000 -0.50000 5.33013 0 0 0
8 0.00000 0.00000 6.19615 0 0 0
9 0.00000 -0.50000 7.06218 0 0 0
10 0.00000 0.00000 7.92820 0 0 0
11 0.00000 -0.50000 8.79423 0 0 0
12 0.00000 0.00000 9.66025 0 0 0
13 0.00000 -0.50000 10.52628 0 0 0
14 -0.00345 0.14944 11.28668 0 0 0
15 -0.00691 0.33167 12.26993 0 0 0
16 -0.01036 1.27431 12.60374 0 0 0
17 -0.01382 1.45654 13.58699 0 0 0
18 -0.01727 2.39918 13.92079 0 0 0
19 -0.02073 2.58141 14.90404 0 0 0
20 -0.02418 3.52405 15.23785 0 0 0
21 -0.02764 3.70628 16.22110 0 0 0
22 -0.03109 4.64891 16.55491 0 0 0
23 -0.03455 4.83115 17.53816 0 0 0
24 -0.03800 5.77378 17.87196 0 0 0
25 -0.04146 5.95601 18.85521 0 0 0
26 0.81807 -1.07249 10.58120 0 0 0
27 1.63615 -1.59573 10.34252 0 0 0
28 2.45422 -2.06406 10.67633 0 0 0
29 3.27229 -2.58731 10.43765 0 0 0
30 4.09037 -3.05563 10.77146 0 0 0
31 4.90844 -3.57888 10.53278 0 0 0
32 5.72651 -4.04721 10.86659 0 0 0
33 6.54459 -4.57045 10.62791 0 0 0
34 7.36266 -5.03878 10.96172 0 0 0
35 8.18073 -5.56203 10.72304 0 0 0
36 8.99881 -6.03035 11.05684 0 0 0
37 9.81688 -6.55360 10.81817 0 0 0
38 -0.81462 -1.07767 10.57821 0 0 0
39 -1.62924 -1.60391 10.33435 0 0 0
40 -2.44386 -2.07822 10.66816 0 0 0
41 -3.25847 -2.60446 10.42430 0 0 0
42 -4.07309 -3.07877 10.75810 0 0 0
43 -4.88771 -3.60501 10.51424 0 0 0
44 -5.70233 -4.07932 10.84805 0 0 0
45 -6.51695 -4.60556 10.60419 0 0 0
46 -7.33157 -5.07987 10.93799 0 0 0
47 -8.14619 -5.60611 10.69413 0 0 0
48 -8.96080 -6.08042 11.02794 0 0 0
49 -9.77542 -6.60666 10.78408 0 0 0
50 -9.97328 -6.48403 9.81155 0 0 0
51 -10.17113 -5.89157 9.03063 0 0 0
52 -10.36899 -6.27163 8.12708 0 0 0
53 -10.56684 -5.67917 7.34615 0 0 0
54 -10.76470 -6.05924 6.44260 0 0 0
55 -10.96255 -5.46677 5.66168 0 0 0
56 -11.16041 -5.84684 4.75813 0 0 0
57 -11.35826 -5.25438 3.97721 0 0 0
58 -11.55611 -5.63444 3.07366 0 0 0
59 -11.75397 -5.04198 2.29274 0 0 0
60 -11.95182 -5.42205 1.38919 0 0 0
61 -12.14968 -4.82958 0.60826 0 0 0
62 -10.55350 -6.28715 11.32492 0 0 0
63 -11.33158 -6.28087 11.95306 0 0 0
64 -12.10965 -5.73374 12.26169 0 0 0
65 -12.88773 -5.72746 12.88983 0 0 0
66 -13.66581 -5.18034 13.19846 0 0 0
67 -14.44388 -5.17405 13.82659 0 0 0
68 -15.22196 -4.62693 14.13522 0 0 0
69 -16.00004 -4.62065 14.76336 0 0 0
70 -16.77811 -4.07352 15.07199 0 0 0
71 -17.55619 -4.06724 15.70013 0 0 0
72 -18.33427 -3.52012 16.00876 0 0 0
73 -19.11234 -3.51384 16.63689 0 0 0
74 -9.61527 -7.57578 10.97156 0 0 0
75 -9.45511 -8.50881 10.64936 0 0 0
76 -9.29496 -9.25435 11.29629 0 0 0
77 -9.13480 -10.18738 10.97409 0 0 0
78 -8.97464 -10.93292 11.62101 0 0 0
79 -8.81449 -11.86595 11.29881 0 0 0
80 -8.65433 -12.61150 11.94574 0 0 0
81 -8.49418 -13.54452 11.62354 0 0 0
82 -8.33402 -14.29007 12.27047 0 0 0
83 -8.17387 -15.22309 11.94827 0 0 0
84 -8.01371 -15.96864 12.59519 0 0 0
85 -7.85356 -16.90167 12.27299 0 0 0
86 -8.23920 -17.55173 12.92774 0 0 0
87 -8.62484 -18.44208 13.16974 0 0 0
88 -9.01048 -18.67768 14.06180 0 0 0
89 -9.39612 -19.56803 14.30380 0 0 0
90 -9.78176 -19.80363 15.19586 0 0 0
91 -10.16740 -20.69397 15.43785 0 0 0
92 -10.55304 -20.92957 16.32991 0 0 0
93 -10.93868 -21.81992 16.57191 0 0 0
94 -11.32433 -22.05552 17.46397 0 0 0
95 -11.70997 -22.94587 17.70597 0 0 0
96 -12.09561 -23.18147 18.59803 0 0 0
97 -12.48125 -24.07181 18.84003 0 0 0
98 -6.87010 -17.06060 12.18606 0 0 0
99 -5.88665 -17.15478 12.03131 0 0 0
100 -4.90319 -17.33589 12.03549 0 0 0
101 -3.91974 -17.43007 11.88074 0 0 0
102 -2.93628 -17.61117 11.88492 0 0 0
103 -1.95283 -17.70535 11.73017 0 0 0
104 -0.96938 -17.88646 11.73435 0 0 0
105 0.01408 -17.98064 11.57960 0 0 0
106 0.99753 -18.16175 11.58378 0 0 0
107 1.98099 -18.25592 11.42903 0 0 0
108 2.96444 -18.43703 11.43321 0 0 0
109 3.94789 -18.53121 11.27846 0 0 0
110 -8.29099 -17.02702 11.38252 0 0 0
111 -8.72842 -16.69033 10.54867 0 0 0
112 -9.16585 -17.24413 9.84018 0 0 0
113 -9.60327 -16.90745 9.00633 0 0 0
114 -10.04070 -17.46124 8.29783 0 0 0
115 -10.47813 -17.12456 7.46398 0 0 0
116 -10.91556 -17.67835 6.75549 0 0 0
117 -11.35299 -17.34167 5.92164 0 0 0
118 -11.79042 -17.89546 5.21314 0 0 0
119 -12.22785 -17.55878 4.37929 0 0 0
120 -12.66528 -18.11257 3.67080 0 0 0
121 -13.10271 -17.77589 2.83695 0 0 0
122 -13.52332 -18.54046 2.34857 0 0 0
123 -13.94393 -18.95841 1.54333 0 0 0
124 -14.36454 -19.86474 1.50266 0 0 0
125 -14.78515 -20.28269 0.69743 0 0 0
126 -15.20576 -21.18902 0.65676 0 0 0
127 -15.62637 -21.60697 -0.14848 0 0 0
128 -16.04698 -22.51330 -0.18914 0 0 0
129 -16.46759 -22.93124 -0.99438 0 0 0
130 -16.88820 -23.83757 -1.03504 0 0 0
131 -17.30881 -24.25552 -1.84028 0 0 0
132 -17.72942 -25.16185 -1.88095 0 0 0
133 -18.15003 -25.57980 -2.68619 0 0 0
134 -12.41691 -17.34375 2.25135 0 0 0
135 -11.73111 -16.67671 1.96027 0 0 0
136 -11.04531 -16.59526 1.23705 0 0 0
137 -10.35951 -15.92822 0.94598 0 0 0
138 -9.67371 -15.84677 0.22276 0 0 0
139 -8.98791 -15.17972 -0.06832 0 0 0
140 -8.30211 -15.09828 -0.79154 0 0 0
141 -7.61630 -14.43123 -1.08261 0 0 0
142 -6.93050 -14.34979 -1.80583 0 0 0
143 -6.24470 -13.68274 -2.09691 0 0 0
144 -5.55890 -13.60130 -2.82012 0 0 0
145 -4.87310 -12.93425 -3.11120 0 0 0
146 -13.80596 -17.10630 3.07590 0 0 0
147 -14.50920 -16.64590 3.61764 0 0 0
148 -15.21244 -15.94654 3.48978 0 0 0
149 -15.91569 -15.48613 4.03152 0 0 0
150 -16.61893 -14.78678 3.90366 0 0 0
151 -17.32217 -14.32637 4.44540 0 0 0
152 -18.02541 -13.62701 4.31754 0 0 0
153 -18.72866 -13.16661 4.85928 0 0 0
154 -19.43190 -12.46725 4.73142 0 0 0
155 -20.13514 -12.00684 5.27316 0 0 0
156 -20.83839 -11.30748 5.14530 0 0 0
157 -21.54163 -10.84708 5.68704 0 0 0
158 -21.12219 -10.43027 6.49347 0 0 0
159 -20.70275 -10.47253 7.40027 0 0 0
160 -20.28331 -9.70835 7.89027 0 0 0
161 -19.86387 -9.75061 8.79707 0 0 0
162 -19.44443 -8.98642 9.28706 0 0 0
163 -19.02499 -9.02868 10.19386 0 0 0
164 -18.60555 -8.26450 10.68386 0 0 0
165 -18.18611 -8.30676 11.59066 0 0 0
166 -17.76667 -7.54257 12.08065 0 0 0
167 -17.34723 -7.58483 12.98745 0 0 0
168 -16.92779 -6.82065 13.47745 0 0 0
169 -16.50835 -6.86290 14.38425 0 0 0
170 -22.22947 -11.51288 5.97615 0 0 0
171 -22.91731 -12.23403 5.89364 0 0 0
172 -23.60515 -12.66607 6.47692 0 0 0
173 -24.29299 -13.38723 6.39440 0 0 0
174 -24.98083 -13.81927 6.97768 0 0 0
175 -25.66867 -14.54042 6.89517 0 0 0
176 -26.35651 -14.97246 7.47845 0 0 0
177 -27.04435 -15.69362 7.39593 0 0 0
178 -27.73219 -16.12566 7.97921 0 0 0
179 -28.42003 -16.84682 7.89670 0 0 0
180 -29.10787 -17.27886 8.47998 0 0 0
181 -29.79571 -18.00001 8.39746 0 0 0
182 -21.97747 -10.13703 5.13398 0 0 0
183 -22.41331 -9.24558 5.01005 0 0 0
184 -22.84915 -8.90718 4.17607 0 0 0
185 -23.28499 -8.01573 4.05214 0 0 0
186 -23.72084 -7.67733 3.21815 0 0 0
187 -24.15668 -6.78588 3.09422 0 0 0
188 -24.59252 -6.44748 2.26024 0 0 0
189 -25.02836 -5.55603 2.13631 0 0 0
190 -25.46420 -5.21763 1.30232 0 0 0
191 -25.90004 -4.32618 1.17839 0 0 0
192 -26.33588 -3.98778 0.34441 0 0 0
193 -26.77172 -3.09633 0.22048 0 0 0
ITEM: TIMESTEP
1000
ITEM: NUMBER OF ATOMS
193
ITEM: BOX BOUNDS pp pp pp
-1.0000000000000000e+03 1.0000000000000000e+03
-1.0000000000000000e+03 1.0000000000000000e+03
-1.0000000000000000e+03 1.0000000000000000e+03
ITEM: ATOMS id x y z ix iy iz
1 -2.09300 -0.25401 3.29166 0 0 0
2 -2.18755 -0.15503 4.30612 0 0 0
3 -2.69234 0.37757 4.99882 0 0 0
4 -2.56112 0.87413 5.83142 0 0 0
5 -2.10836 0.17143 6.29891 0 0 0
6 -1.26145 -0.37679 6.22867 0 0 0
7 -1.25029 -1.35293 6.24084 0 0 0
8 -0.90196 -2.08680 6.81946 0 0 0
9 -0.55732 -2.50398 7.63753 0 0 0
10 -0.82961 -2.03833 8.43279 0 0 0
11 -1.11398 -1.63044 9.25011 0 0 0
12 -1.13737 -1.29371 10.11459 0 0 0
13 -1.21981 -1.02351 11.02051 0 0 0
14 -1.06417 -0.49557 11.86480 0 0 0
15 -1.25473 -0.94438 12.64570 0 0 0
16 -0.33217 -1.22936 12.79775 0 0 0
17 0.15625 -0.38379 13.19534 0 0 0
18 0.69087 0.46900 13.10023 0 0 0
19 0.73642 0.34245 12.14424 0 0 0
20 0.10140 0.74133 11.53008 0 0 0
21 -0.18486 1.63484 11.31697 0 0 0
22 -0.03039 2.45067 11.90138 0 0 0
23 0.05560 3.41910 12.11414 0 0 0
24 0.23251 4.00609 12.87330 0 0 0
25 1.06153 3.45470 12.91387 0 0 0
26 -0.27587 -1.25682 11.11297 0 0 0
27 0.69567 -1.41927 11.25694 0 0 0
28 1.04659 -0.58184 10.97589 0 0 0
29 1.64343 -0.69114 11.82879 0 0 0
30 1.50056 -1.27609 12.57948 0 0 0
31 2.21942 -1.93141 12.89902 0 0 0
32 2.55027 -2.46502 13.76466 0 0 0
33 2.54575 -3.08352 13.01879 0 0 0
34 2.85643 -4.01809 13.49823 0 0 0
35 3.77900 -4.25551 13.58651 0 0 0
36 4.41482 -5.01645 13.75913 0 0 0
37 4.88356 -5.91684 13.91225 0 0 0
38 -2.06717 -1.38027 11.34898 0 0 0
39 -3.04250 -1.33809 11.24228 0 0 0
40 -3.35794 -2.15122 10.86338 0 0 0
41 -4.08432 -2.83721 10.78915 0 0 0
42 -4.60517 -3.68388 10.68872 0 0 0
43 -5.39143 -3.85502 10.13068 0 0 0
44 -6.24347 -4.26749 9.73378 0 0 0
45 -7.10998 -3.80418 10.03657 0 0 0
46 -7.88330 -4.40099 10.11415 0 0 0
47 -8.33466 -5.31378 10.00551 0 0 0
48 -8.81416 -6.02234 9.57552 0 0 0
49 -9.57133 -6.40405 10.05257 0 0 0
50 -9.83501 -5.60625 9.53680 0 0 0
51 -10.46370 -4.90528 9.34731 0 0 0
52 -10.37905 -5.43206 8.49368 0 0 0
53 -9.82040 -5.49192 7.64000 0 0 0
54 -9.25090 -4.99452 6.93212 0 0 0
55 -9.10231 -5.54370 6.10167 0 0 0
56 -8.81097 -6.47280 5.94093 0 0 0
57 -9.32182 -7.22392 5.90610 0 0 0
58 -9.64487 -7.53766 4.98301 0 0 0
59 -9.86174 -7.28269 4.07463 0 0 0
60 -10.60365 -6.97803 3.54799 0 0 0
61 -10.64925 -6.00674 3.52161 0 0 0
62 -9.75643 -6.50891 10.99011 0 0 0
63 -10.52460 -6.16265 11.52294 0 0 0
64 -11.49600 -5.81031 11.49212 0 0 0
65 -12.38767 -5.42817 11.28511 0 0 0
66 -13.15930 -5.91924 11.65834 0 0 0
67 -13.04713 -6.42367 12.53531 0 0 0
68 -13.63743 -6.48506 13.25821 0 0 0
69 -14.26175 -6.01273 13.85957 0 0 0
70 -14.86958 -5.92807 14.71572 0 0 0
71 -15.45622 -5.99612 15.48656 0 0 0
72 -15.67323 -6.28500 16.50414 0 0 0
73 -14.78469 -6.52016 16.39575 0 0 0
74 -10.00078 -7.03138 9.37680 0 0 0
75 -9.37343 -7.73972 9.54476 0 0 0
76 -8.94105 -8.56136 9.97042 0 0 0
77 -9.52521 -9.29906 9.79918 0 0 0
78 -9.70621 -10.03433 10.37837 0 0 0
79 -9.27416 -10.92443 10.57946 0 0 0
80 -8.47696 -11.47599 10.31663 0 0 0
81 -7.80282 -12.14547 10.45809 0 0 0
82 -7.97690 -12.95923 9.86284 0 0 0
83 -8.21117 -13.35909 10.70297 0 0 0
84 -8.74373 -14.05967 11.06162 0 0 0
85 -8.72024 -15.04032 10.98275 0 0 0
86 -8.61178 -15.60242 11.80483 0 0 0
87 -9.02962 -16.55145 11.65677 0 0 0
88 -9.21701 -17.46307 11.54903 0 0 0
89 -9.32635 -18.30982 12.06947 0 0 0
90 -9.52996 -19.28333 12.07150 0 0 0
91 -9.61675 -19.97906 12.68936 0 0 0
92 -10.27146 -20.34333 13.37723 0 0 0
93 -10.35165 -20.65236 14.32231 0 0 0
94 -10.87875 -21.47440 14.53906 0 0 0
95 -10.95126 -22.37419 14.80704 0 0 0
96 -11.09783 -22.79713 15.62363 0 0 0
97 -11.40101 -22.96336 16.49049 0 0 0
98 -7.66360 -15.05074 10.91769 0 0 0
99 -6.80264 -14.71072 11.07002 0 0 0
100 -6.53400 -15.43810 11.73303 0 0 0
101 -6.26489 -16.28606 12.16715 0 0 0
102 -5.46914 -16.85283 11.97599 0 0 0
103 -4.60723 -16.62078 11.59273 0 0 0
104 -3.86750 -17.21974 11.64356 0 0 0
105 -2.99506 -17.48253 11.26756 0 0 0
106 -2.12391 -17.49510 11.86104 0 0 0
107 -2.04476 -17.66533 12.86079 0 0 0
108 -1.66536 -17.59828 13.80901 0 0 0
109 -1.31163 -18.43450 13.69997 0 0 0
110 -9.20031 -15.34886 10.19547 0 0 0
111 -9.82774 -15.88630 9.80717 0 0 0
112 -10.47376 -15.49404 9.19157 0 0 0
113 -11.04575 -14.68502 8.82990 0 0 0
114 -11.69264 -14.89265 8.09158 0 0 0
115 -11.94447 -15.26487 7.21042 0 0 0
116 -12.54441 -14.64050 6.67980 0 0 0
117 -13.11400 -14.57652 5.90664 0 0 0
118 -13.66461 -15.29806 5.68628 0 0 0
119 -13.28512 -15.72714 4.71664 0 0 0
120 -14.18347 -15.67851 4.21066 0 0 0
121 -14.58684 -15.15017 3.43953 0 0 0
122 -15.01754 -15.92507 3.03164 0 0 0
123 -15.14842 -15.82482 2.06274 0 0 0
124 -15.61410 -16.63763 2.28723 0 0 0
125 -15.76638 -17.28025 1.58292 0 0 0
126 -16.02918 -17.53941 0.69728 0 0 0
127 -16.47154 -18.27481 0.13068 0 0 0
128 -16.26108 -19.20584 0.17119 0 0 0
129 -16.82121 -20.10021 0.04497 0 0 0
130 -16.43221 -20.92405 -0.34427 0 0 0
131 -15.75295 -21.58584 -0.42941 0 0 0
132 -15.03192 -21.71801 -1.04402 0 0 0
133 -15.16537 -21.65004 -1.97463 0 0 0
134 -13.70961 -15.71063 3.18676 0 0 0
135 -13.13834 -16.32597 3.68699 0 0 0
136 -12.41922 -16.55402 4.27298 0 0 0
137 -11.58650 -16.59143 3.73861 0 0 0
138 -11.84208 -16.38181 2.85420 0 0 0
139 -11.58363 -15.98767 2.07035 0 0 0
140 -11.45239 -16.04638 1.10788 0 0 0
141 -11.36756 -15.22140 0.52051 0 0 0
142 -11.41493 -14.17479 0.48353 0 0 0
143 -10.62927 -13.59764 0.45173 0 0 0
144 -9.82849 -14.08728 0.57340 0 0 0
145 -8.95579 -14.21248 0.26998 0 0 0
146 -15.13191 -15.06150 4.28816 0 0 0
147 -16.07014 -15.22834 4.43550 0 0 0
148 -16.90649 -15.79433 4.47043 0 0 0
149 -17.57585 -16.44369 4.60222 0 0 0
150 -18.03612 -16.08360 5.36910 0 0 0
151 -18.43445 -15.53645 6.12409 0 0 0
152 -18.84549 -14.71281 6.58444 0 0 0
153 -19.72301 -14.16576 6.71581 0 0 0
154 -19.61614 -13.20618 6.73952 0 0 0
155 -19.85550 -12.24881 6.65503 0 0 0
156 -20.47877 -11.76692 6.15065 0 0 0
157 -21.16168 -11.27854 6.62655 0 0 0
158 -21.47090 -11.21278 7.58204 0 0 0
159 -20.57034 -10.70934 7.32623 0 0 0
160 -19.76646 -10.52824 7.80649 0 0 0
161 -19.03405 -10.36715 8.35901 0 0 0
162 -18.24918 -10.11676 8.87870 0 0 0
163 -17.33358 -10.04087 8.60196 0 0 0
164 -16.67660 -9.32351 9.02885 0 0 0
165 -15.93326 -8.73927 9.27790 0 0 0
166 -16.91182 -8.37138 9.47275 0 0 0
167 -17.83761 -8.60573 9.41790 0 0 0
168 -18.23419 -8.21690 10.20570 0 0 0
169 -17.78469 -7.43432 10.77363 0 0 0
170 -21.76920 -11.98559 6.73948 0 0 0
171 -22.39368 -12.26748 6.03584 0 0 0
172 -23.10526 -11.82217 5.66968 0 0 0
173 -23.77368 -12.13670 5.04607 0 0 0
174 -24.73336 -12.02683 5.10334 0 0 0
175 -24.92809 -12.93342 4.95989 0 0 0
176 -25.56219 -13.39357 5.60444 0 0 0
177 -26.40806 -13.85496 6.05247 0 0 0
178 -26.32280 -13.77216 7.03071 0 0 0
179 -26.46795 -14.66306 6.80859 0 0 0
180 -26.98134 -15.17871 7.44859 0 0 0
181 -26.09354 -14.86874 7.80060 0 0 0
182 -21.44313 -10.42366 6.19730 0 0 0
183 -22.15550 -9.80957 5.81226 0 0 0
184 -22.16897 -10.37815 4.96626 0 0 0
185 -22.85847 -10.08890 4.37939 0 0 0
186 -22.98268 -10.11637 3.36837 0 0 0
187 -22.79047 -9.92582 2.47159 0 0 0
188 -22.75375 -9.30597 1.60852 0 0 0
189 -23.06548 -8.65194 2.30555 0 0 0
190 -23.60789 -8.22326 2.93246 0 0 0
191 -23.64805 -7.35077 2.33169 0 0 0
192 -24.51410 -7.58844 2.69272 0 0 0
193 -25.48742 -7.57068 3.02203 0 0 0
ITEM: TIMESTEP
2000
ITEM: NUMBER OF ATOMS
193
ITEM: BOX BOUNDS pp pp pp
-1.0000000000000000e+03 1.0000000000000000e+03
-1.0000000000000000e+03 1.0000000000000000e+03
-1.0000000000000000e+03 1.0000000000000000e+03
ITEM: ATOMS id x y z ix iy iz
1 -5.02697 -1.97144 6.20099 0 0 0
2 -4.61562 -2.94931 6.46356 0 0 0
3 -3.68540 -2.71748 6.35975 0 0 0
4 -3.39641 -1.72308 6.18390 0 0 0
5 -2.62938 -1.75186 6.84904 0 0 0
6 -1.85847 -2.26919 6.96036 0 0 0
7 -1.84246 -2.47949 8.00001 0 0 0
8 -1.61015 -3.15487 8.63404 0 0 0
9 -0.81530 -3.23716 9.20292 0 0 0
10 -0.17604 -3.07752 9.90138 0 0 0
11 -0.50198 -2.44513 10.55380 0 0 0
12 -0.88468 -1.59934 10.92526 0 0 0
13 -1.03185 -0.68602 10.64747 0 0 0
14 -0.29519 -1.13702 10.20990 0 0 0
15 0.70238 -1.00367 10.32126 0 0 0
16 0.86086 -0.07378 10.37909 0 0 0
17 1.69262 0.50695 10.43366 0 0 0
18 1.21941 1.29769 10.50344 0 0 0
19 0.79265 1.47944 11.36570 0 0 0
20 0.65453 0.87566 12.15637 0 0 0
21 0.59218 1.61575 12.67393 0 0 0
22 0.15785 2.42713 12.73085 0 0 0
23 0.09600 2.33232 11.81360 0 0 0
24 0.28811 2.53453 10.87172 0 0 0
25 -0.32216 2.37126 10.09316 0 0 0
26 -0.44581 -0.68801 11.41382 0 0 0
27 -0.48189 -0.52622 12.33661 0 0 0
28 -0.21057 -0.94736 13.19557 0 0 0
29 -0.62936 -1.15252 14.03097 0 0 0
30 -0.72384 -2.09459 13.90489 0 0 0
31 -1.07955 -2.93503 14.35709 0 0 0
32 -1.02847 -3.91397 14.11315 0 0 0
33 -0.10824 -4.09810 13.92179 0 0 0
34 -0.37639 -4.54339 13.08844 0 0 0
35 0.22180 -5.34914 13.38237 0 0 0
36 0.42559 -5.74255 12.52063 0 0 0
37 0.73538 -5.56181 11.56805 0 0 0
38 -2.04276 -0.79206 10.38833 0 0 0
39 -2.51497 -1.24187 11.08458 0 0 0
40 -3.23493 -1.94377 11.26246 0 0 0
41 -3.95783 -1.86843 10.63787 0 0 0
42 -4.28738 -2.69481 10.39538 0 0 0
43 -3.97925 -3.57676 10.42012 0 0 0
44 -4.47495 -4.29832 10.77659 0 0 0
45 -5.42354 -4.62096 10.65318 0 0 0
46 -6.23130 -5.05318 10.31542 0 0 0
47 -6.62279 -5.95279 10.53824 0 0 0
48 -7.32765 -6.17135 10.02471 0 0 0
49 -8.27163 -6.44934 9.77304 0 0 0
50 -9.09507 -6.85208 10.09181 0 0 0
51 -9.79059 -6.92242 9.42897 0 0 0
52 -10.25866 -6.84040 8.54777 0 0 0
53 -9.93750 -7.40730 7.83174 0 0 0
54 -9.03804 -7.75559 7.58864 0 0 0
55 -8.44055 -7.09974 7.30251 0 0 0
56 -8.18983 -7.80403 6.73959 0 0 0
57 -8.43428 -7.30117 5.85882 0 0 0
58 -9.12767 -6.74661 5.43122 0 0 0
59 -8.88724 -7.42881 4.90525 0 0 0
60 -8.42011 -6.63147 4.37406 0 0 0
61 -7.48028 -6.56268 3.97541 0 0 0
62 -8.34821 -5.56652 9.23748 0 0 0
63 -8.20594 -5.42677 10.18761 0 0 0
64 -9.19675 -5.24526 10.34633 0 0 0
65 -10.19975 -5.47191 10.52849 0 0 0
66 -10.82739 -5.59467 11.27283 0 0 0
67 -11.77581 -5.43762 11.52263 0 0 0
68 -11.82398 -4.68266 12.19255 0 0 0
69 -12.13403 -3.89467 12.56362 0 0 0
70 -11.90840 -4.60385 13.29601 0 0 0
71 -12.73055 -4.89209 12.77087 0 0 0
72 -13.19101 -5.46606 13.36954 0 0 0
73 -12.72860 -6.05468 13.91997 0 0 0
74 -8.05697 -7.45098 9.68253 0 0 0
75 -7.85736 -8.43866 9.83722 0 0 0
76 -8.27375 -8.95531 10.55396 0 0 0
77 -8.65328 -9.84455 10.72637 0 0 0
78 -8.84928 -10.50469 10.04623 0 0 0
79 -8.71727 -11.54350 9.84619 0 0 0
80 -8.42145 -12.42839 9.76631 0 0 0
81 -7.45000 -12.39485 9.32328 0 0 0
82 -6.91981 -13.17572 9.59101 0 0 0
83 -7.08584 -13.94645 10.31279 0 0 0
84 -7.67947 -14.42155 10.93337 0 0 0
85 -8.57374 -14.73960 11.04044 0 0 0
86 -8.52078 -15.72879 10.97254 0 0 0
87 -8.59729 -16.72221 10.82419 0 0 0
88 -8.33647 -17.70880 10.85995 0 0 0
89 -8.85333 -18.13065 11.52145 0 0 0
90 -9.18814 -18.85825 12.09268 0 0 0
91 -9.55055 -19.64542 12.58940 0 0 0
92 -9.84860 -20.52399 12.78411 0 0 0
93 -9.48776 -21.33468 12.99628 0 0 0
94 -9.07749 -20.53233 13.54782 0 0 0
95 -8.28149 -20.30546 14.07730 0 0 0
96 -7.87139 -19.63340 14.68289 0 0 0
97 -7.24587 -19.84126 15.48873 0 0 0
98 -8.71440 -14.09028 11.69287 0 0 0
99 -8.78015 -14.64728 12.50806 0 0 0
100 -7.81943 -14.72576 12.04315 0 0 0
101 -7.25138 -14.49898 12.79075 0 0 0
102 -6.48334 -14.53676 13.45233 0 0 0
103 -5.65817 -14.99838 13.46448 0 0 0
104 -5.95537 -15.39716 14.35146 0 0 0
105 -5.23190 -15.88591 14.75691 0 0 0
106 -5.43007 -14.97011 15.07203 0 0 0
107 -4.56999 -14.48117 14.81946 0 0 0
108 -4.17415 -14.96613 14.06587 0 0 0
109 -4.67787 -14.51941 13.36234 0 0 0
110 -8.34605 -14.80078 10.11916 0 0 0
111 -8.43128 -15.40736 9.33146 0 0 0
112 -9.20923 -15.22962 8.76430 0 0 0
113 -9.29843 -15.11890 7.82761 0 0 0
114 -9.70447 -15.82025 7.23824 0 0 0
115 -10.20225 -15.91126 6.30161 0 0 0
116 -10.37618 -16.52454 5.52785 0 0 0
117 -10.52662 -17.45159 5.37160 0 0 0
118 -11.53646 -17.17624 5.17132 0 0 0
119 -12.24113 -17.06133 4.57156 0 0 0
120 -13.15373 -17.32885 4.20098 0 0 0
121 -14.01029 -16.96475 4.38338 0 0 0
122 -14.59321 -17.36770 5.05913 0 0 0
123 -15.53141 -17.33002 4.61929 0 0 0
124 -16.04939 -17.86015 4.01720 0 0 0
125 -15.67452 -18.15531 3.15817 0 0 0
126 -14.86134 -18.47160 2.58698 0 0 0
127 -14.44785 -18.30692 3.53908 0 0 0
128 -14.76238 -18.80391 4.35682 0 0 0
129 -15.61843 -18.76477 4.93968 0 0 0
130 -16.52204 -19.07014 4.60740 0 0 0
131 -16.77475 -19.94922 4.10738 0 0 0
132 -17.13787 -20.13869 5.04847 0 0 0
133 -16.73489 -20.78578 5.67057 0 0 0
134 -14.05091 -16.22380 3.74340 0 0 0
135 -14.25163 -15.40133 3.27867 0 0 0
136 -13.76211 -14.91624 2.54524 0 0 0
137 -13.78034 -15.62045 1.88955 0 0 0
138 -14.12693 -15.82428 1.03118 0 0 0
139 -13.16766 -15.55807 0.73315 0 0 0
140 -12.33972 -15.32875 0.18733 0 0 0
141 -12.77061 -16.11725 -0.10759 0 0 0
142 -12.80786 -17.03582 -0.57407 0 0 0
143 -11.82000 -17.26335 -0.50654 0 0 0
144 -10.92219 -16.76523 -0.27795 0 0 0
145 -11.64005 -16.75178 0.31445 0 0 0
146 -13.83026 -16.12093 4.81737 0 0 0
147 -14.65032 -15.79013 5.39030 0 0 0
148 -15.39032 -15.50227 5.92604 0 0 0
149 -16.30834 -15.14013 5.86296 0 0 0
150 -16.08608 -15.66753 6.78228 0 0 0
151 -15.89800 -15.14201 7.55370 0 0 0
152 -16.49814 -14.57846 7.11696 0 0 0
153 -17.22929 -13.88462 7.06832 0 0 0
154 -17.78867 -13.42321 6.36831 0 0 0
155 -18.31992 -13.58647 5.52316 0 0 0
156 -19.13492 -13.10713 5.62592 0 0 0
157 -20.08971 -13.07571 5.51630 0 0 0
158 -20.10752 -12.50995 6.35218 0 0 0
159 -19.94315 -11.95717 7.22186 0 0 0
160 -19.16943 -11.36445 7.07884 0 0 0
161 -18.58924 -11.52078 7.81978 0 0 0
162 -18.81982 -11.52196 8.72259 0 0 0
163 -18.98878 -11.77723 9.74611 0 0 0
164 -18.32400 -11.08018 9.77847 0 0 0
165 -17.38450 -11.35475 9.72527 0 0 0
166 -16.95751 -10.51078 9.54656 0 0 0
167 -17.53939 -9.73063 9.92406 0 0 0
168 -18.25201 -9.46586 9.20449 0 0 0
169 -17.61396 -9.02347 8.52037 0 0 0
170 -20.97066 -13.14365 5.11910 0 0 0
171 -21.89876 -13.01424 4.91236 0 0 0
172 -22.62856 -12.37466 5.02324 0 0 0
173 -22.80917 -11.83247 5.81266 0 0 0
174 -23.39165 -11.89842 6.59711 0 0 0
175 -24.10385 -11.86490 7.29711 0 0 0
176 -24.85620 -12.47474 7.60135 0 0 0
177 -25.78403 -12.69435 7.13048 0 0 0
178 -26.04669 -11.92752 6.77085 0 0 0
179 -25.75838 -10.96966 6.74378 0 0 0
180 -25.43194 -10.07301 6.35112 0 0 0
181 -25.20488 -9.09183 6.55383 0 0 0
182 -20.20079 -13.24853 4.52514 0 0 0
183 -19.89096 -12.35555 4.54050 0 0 0
184 -19.99149 -11.64975 3.74567 0 0 0
185 -20.46874 -10.99497 3.15681 0 0 0
186 -20.28875 -10.52812 2.30450 0 0 0
187 -20.90286 -9.83016 2.40722 0 0 0
188 -20.62843 -8.95226 2.01265 0 0 0
189 -21.36544 -8.35796 1.67667 0 0 0
190 -22.06437 -7.65520 1.71380 0 0 0
191 -22.16250 -7.02205 2.51257 0 0 0
192 -22.99524 -6.69105 3.11244 0 0 0
193 -22.84433 -5.85394 3.58598 0 0 0
ITEM: TIMESTEP
3000
ITEM: NUMBER OF ATOMS
193
ITEM: BOX BOUNDS pp pp pp
-1.0000000000000000e+03 1.0000000000000000e+03
-1.0000000000000000e+03 1.0000000000000000e+03
-1.0000000000000000e+03 1.0000000000000000e+03
ITEM: ATOMS id x y z ix iy iz
1 -3.91062 -3.37145 6.18292 0 0 0
2 -3.61375 -2.81360 6.85874 0 0 0
3 -2.76908 -3.32872 6.61481 0 0 0
4 -2.91757 -3.73668 7.46774 0 0 0
5 -2.39815 -2.97342 7.83702 0 0 0
6 -1.50121 -3.43082 8.04366 0 0 0
7 -0.98042 -4.18230 7.50401 0 0 0
8 -0.31989 -3.85254 8.10359 0 0 0
9 0.04267 -3.05487 8.66861 0 0 0
10 -0.65770 -2.40048 9.09795 0 0 0
11 -0.61853 -1.76449 9.79879 0 0 0
12 -1.29969 -2.21187 10.43492 0 0 0
13 -1.79141 -2.43827 11.30077 0 0 0
14 -1.73284 -1.60278 11.71749 0 0 0
15 -1.30612 -0.76092 11.54617 0 0 0
16 -0.62935 -0.13951 11.09948 0 0 0
17 -0.65298 0.12453 10.13279 0 0 0
18 0.26797 0.33603 10.51421 0 0 0
19 1.13724 0.52470 10.92212 0 0 0
20 1.76156 0.74588 11.68554 0 0 0
21 2.35083 1.44480 12.04555 0 0 0
22 2.52081 1.85205 11.12252 0 0 0
23 2.16549 1.92225 10.16400 0 0 0
24 1.38642 1.95079 9.48448 0 0 0
25 0.93225 2.32651 8.77202 0 0 0
26 -1.46636 -3.31770 11.67100 0 0 0
27 -0.83203 -3.86033 12.34816 0 0 0
28 -0.35398 -4.41735 13.00317 0 0 0
29 0.37286 -4.86701 13.40625 0 0 0
30 1.14015 -4.84420 12.76381 0 0 0
31 1.68440 -5.59277 13.07551 0 0 0
32 2.09673 -5.10691 12.26154 0 0 0
33 1.99863 -5.99217 11.90322 0 0 0
34 2.67688 -6.70682 11.58398 0 0 0
35 2.58650 -7.65915 11.21242 0 0 0
36 1.70042 -7.18710 11.45486 0 0 0
37 0.80339 -7.12700 11.82758 0 0 0
38 -2.68328 -2.05041 11.08523 0 0 0
39 -3.21511 -1.27652 11.40404 0 0 0
40 -3.77776 -1.79248 10.78148 0 0 0
41 -4.00482 -2.16624 11.57874 0 0 0
42 -4.13762 -2.98183 12.09064 0 0 0
43 -4.59244 -3.91046 11.80077 0 0 0
44 -5.24720 -4.56025 11.90528 0 0 0
45 -6.15795 -4.72619 11.91968 0 0 0
46 -6.85172 -4.61716 12.61386 0 0 0
47 -7.56900 -4.95959 12.01760 0 0 0
48 -8.44173 -5.16219 11.50738 0 0 0
49 -8.85245 -5.84884 10.93765 0 0 0
50 -9.20249 -6.26600 10.09927 0 0 0
51 -8.83413 -6.82674 9.42283 0 0 0
52 -8.30893 -6.86909 8.66734 0 0 0
53 -7.78756 -6.05295 8.66858 0 0 0
54 -8.10069 -5.11424 8.37414 0 0 0
55 -8.24002 -4.25836 8.71544 0 0 0
56 -8.66847 -3.42334 8.06406 0 0 0
57 -8.23589 -3.81159 7.25744 0 0 0
58 -7.29171 -3.88318 7.51801 0 0 0
59 -6.58760 -3.71792 8.16331 0 0 0
60 -5.63565 -3.72395 7.98699 0 0 0
61 -4.93871 -4.33873 8.40369 0 0 0
62 -9.67452 -5.28450 11.12559 0 0 0
63 -10.34902 -5.23018 10.43992 0 0 0
64 -10.89779 -6.00863 10.18726 0 0 0
65 -10.36920 -6.80549 10.39562 0 0 0
66 -11.13696 -6.79488 10.99562 0 0 0
67 -10.90227 -6.63582 11.97681 0 0 0
68 -10.92609 -5.71356 12.22537 0 0 0
69 -11.14169 -4.79382 12.06999 0 0 0
70 -11.95381 -4.43864 11.64242 0 0 0
71 -12.26751 -4.36504 12.51581 0 0 0
72 -12.52595 -4.90188 13.24320 0 0 0
73 -12.49561 -5.69661 12.72248 0 0 0
74 -9.39045 -6.65352 11.08002 0 0 0
75 -8.72282 -7.39498 10.92373 0 0 0
76 -8.92191 -8.26865 11.30223 0 0 0
77 -9.20721 -9.17889 11.13518 0 0 0
78 -9.14410 -9.90080 10.46542 0 0 0
79 -8.53768 -9.75412 9.65868 0 0 0
80 -7.74185 -10.03650 9.16196 0 0 0
81 -8.31985 -10.81286 8.74661 0 0 0
82 -7.82002 -11.51329 8.40190 0 0 0
83 -7.71414 -12.46701 8.22291 0 0 0
84 -7.99584 -13.35755 8.68608 0 0 0
85 -7.67146 -13.79977 9.49128 0 0 0
86 -6.82849 -14.30145 9.57252 0 0 0
87 -6.42265 -14.46108 10.41520 0 0 0
88 -6.16411 -14.95435 11.23213 0 0 0
89 -6.68984 -15.51174 11.88994 0 0 0
90 -6.87006 -16.44865 11.51256 0 0 0
91 -7.47105 -16.63761 12.21290 0 0 0
92 -7.62494 -16.08066 13.01195 0 0 0
93 -8.34864 -16.38199 13.57256 0 0 0
94 -8.61960 -17.02653 12.87905 0 0 0
95 -8.57731 -17.92987 13.21968 0 0 0
96 -9.16411 -18.68234 13.43344 0 0 0
97 -9.80654 -18.89011 14.20955 0 0 0
98 -7.53450 -13.64374 10.44594 0 0 0
99 -8.52208 -13.39869 10.44401 0 0 0
100 -8.61663 -13.28991 11.39360 0 0 0
101 -7.96055 -13.44023 12.04036 0 0 0
102 -7.14159 -13.35252 12.51486 0 0 0
103 -6.50011 -12.67835 12.26735 0 0 0
104 -5.85081 -11.94467 12.55200 0 0 0
105 -6.34025 -11.93510 13.43763 0 0 0
106 -6.32715 -12.53843 14.14143 0 0 0
107 -7.32977 -12.65499 14.10532 0 0 0
108 -7.82874 -12.38727 13.35892 0 0 0
109 -8.18073 -12.20116 12.52874 0 0 0
110 -8.56344 -14.31402 9.37349 0 0 0
111 -9.42471 -14.11192 9.79056 0 0 0
112 -9.48029 -15.01825 9.44669 0 0 0
113 -9.89456 -15.65266 8.74288 0 0 0
114 -10.14767 -16.03690 7.91457 0 0 0
115 -10.26720 -15.66412 7.02872 0 0 0
116 -10.91877 -16.40151 6.79602 0 0 0
117 -10.80373 -16.29577 5.88081 0 0 0
118 -11.43538 -17.03021 5.54075 0 0 0
119 -12.12576 -17.78161 5.51254 0 0 0
120 -13.08268 -17.18119 5.42429 0 0 0
121 -13.95682 -16.78069 5.70205 0 0 0
122 -14.74303 -17.27830 6.14688 0 0 0
123 -15.37244 -16.86685 5.39296 0 0 0
124 -14.78514 -17.52487 4.95496 0 0 0
125 -14.89763 -17.61348 3.96689 0 0 0
126 -15.74906 -18.06459 3.67346 0 0 0
127 -15.99712 -17.16514 3.96295 0 0 0
128 -16.00311 -17.78241 4.69346 0 0 0
129 -16.63731 -18.36110 4.37283 0 0 0
130 -17.35995 -17.82731 4.02662 0 0 0
131 -18.26133 -17.73831 4.47693 0 0 0
132 -18.95959 -17.04236 4.84527 0 0 0
133 -18.72418 -17.33238 5.73622 0 0 0
134 -13.45452 -16.03533 5.31967 0 0 0
135 -13.01100 -15.80956 4.46415 0 0 0
136 -12.92102 -15.56577 3.57454 0 0 0
137 -12.03629 -15.61477 3.02645 0 0 0
138 -11.27520 -16.05675 2.58887 0 0 0
139 -11.52790 -16.77450 1.98743 0 0 0
140 -10.92773 -16.81401 1.16577 0 0 0
141 -11.49239 -17.31613 0.58850 0 0 0
142 -12.25836 -17.26752 -0.04921 0 0 0
143 -12.96392 -17.52955 0.51692 0 0 0
144 -13.24655 -17.68001 -0.45542 0 0 0
145 -12.69691 -17.76274 -1.26989 0 0 0
146 -14.29645 -16.48667 6.60187 0 0 0
147 -14.77578 -15.64892 6.97181 0 0 0
148 -15.56040 -15.57708 6.43526 0 0 0
149 -15.67624 -15.56302 5.51257 0 0 0
150 -15.99542 -15.07919 4.74447 0 0 0
151 -16.97881 -15.34859 4.98255 0 0 0
152 -17.76418 -14.84693 4.47183 0 0 0
153 -18.69532 -14.81493 4.61393 0 0 0
154 -19.17046 -14.01476 4.32410 0 0 0
155 -19.66813 -13.15482 4.23704 0 0 0
156 -20.07908 -12.27317 4.40353 0 0 0
157 -20.59631 -11.44029 4.61820 0 0 0
158 -20.27196 -11.03277 5.52643 0 0 0
159 -19.33230 -11.42387 5.70601 0 0 0
160 -18.81186 -10.93450 6.38670 0 0 0
161 -17.94000 -11.07443 6.90256 0 0 0
162 -17.43256 -10.24620 6.95480 0 0 0
163 -16.68286 -9.72907 6.59194 0 0 0
164 -16.88165 -9.23387 7.36336 0 0 0
165 -16.99466 -8.43658 7.88719 0 0 0
166 -16.48312 -7.72898 7.50427 0 0 0
167 -15.85669 -8.48145 7.46445 0 0 0
168 -15.33232 -8.41304 8.30251 0 0 0
169 -14.45825 -8.77661 8.06983 0 0 0
170 -21.48582 -11.00536 4.70240 0 0 0
171 -22.05743 -11.80039 4.88393 0 0 0
172 -21.70050 -12.52643 5.41801 0 0 0
173 -22.32735 -12.94856 5.98841 0 0 0
174 -23.13797 -12.30136 6.10535 0 0 0
175 -23.04963 -11.61708 5.45004 0 0 0
176 -23.73366 -11.13517 4.92400 0 0 0
177 -24.51974 -11.16975 5.53187 0 0 0
178 -24.17311 -11.87459 6.16307 0 0 0
179 -24.44454 -11.08586 6.75931 0 0 0
180 -25.25349 -10.63488 6.94810 0 0 0
181 -26.24514 -10.51987 6.52771 0 0 0
182 -20.31765 -10.95759 3.79366 0 0 0
183 -20.16064 -11.45935 3.00911 0 0 0
184 -19.41113 -10.90315 3.38280 0 0 0
185 -19.22855 -10.17593 2.71481 0 0 0
186 -18.60419 -9.64133 2.15912 0 0 0
187 -18.98497 -9.16858 2.96090 0 0 0
188 -19.56640 -8.38895 3.30591 0 0 0
189 -19.17271 -7.64124 3.73932 0 0 0
190 -18.91052 -6.68345 3.73086 0 0 0
191 -18.36768 -5.97940 4.11747 0 0 0
192 -17.43391 -6.08537 4.05317 0 0 0
193 -16.76799 -6.82142 3.96537 0 0 0
ITEM: TIMESTEP
4000
ITEM: NUMBER OF ATOMS
193
ITEM: BOX BOUNDS pp pp pp
-1.0000000000000000e+03 1.0000000000000000e+03
-1.0000000000000000e+03 1.0000000000000000e+03
-1.0000000000000000e+03 1.0000000000000000e+03
ITEM: ATOMS id x y z ix iy iz
1 -3.64899 -4.46975 6.55435 0 0 0
2 -4.04179 -3.60211 6.63653 0 0 0
3 -3.30676 -3.33182 6.03715 0 0 0
4 -2.63423 -3.58656 6.96001 0 0 0
5 -1.89994 -4.10583 7.32663 0 0 0
6 -2.07066 -4.99410 7.66747 0 0 0
7 -2.38803 -5.29711 8.50615 0 0 0
8 -1.49197 -5.06708 9.08550 0 0 0
9 -1.69419 -4.38459 8.40729 0 0 0
10 -1.80730 -3.38259 8.45725 0 0 0
11 -1.25151 -2.83081 9.06745 0 0 0