ITEM: TIMESTEP
0
ITEM: NUMBER OF ATOMS
401
ITEM: BOX BOUNDS pp pp pp
-1.0000000000000000e+03 1.0000000000000000e+03
-1.0000000000000000e+03 1.0000000000000000e+03
-1.0000000000000000e+03 1.0000000000000000e+03
ITEM: ATOMS id x y z ix iy iz
1 0.00000 0.00000 0.00000 0 0 0
2 0.00000 0.00000 1.00000 0 0 0
3 0.00000 -0.50000 1.86603 0 0 0
4 0.00000 0.00000 2.73205 0 0 0
5 0.00000 -0.50000 3.59808 0 0 0
6 0.00000 0.00000 4.46410 0 0 0
7 0.00000 -0.50000 5.33013 0 0 0
8 0.00000 0.00000 6.19615 0 0 0
9 0.00000 -0.50000 7.06218 0 0 0
10 0.00000 0.00000 7.92820 0 0 0
11 0.00000 -0.50000 8.79423 0 0 0
12 0.00000 0.00000 9.66025 0 0 0
13 0.00000 -0.50000 10.52628 0 0 0
14 0.00000 0.00000 11.39230 0 0 0
15 0.00000 -0.50000 12.25833 0 0 0
16 0.00000 0.00000 13.12436 0 0 0
17 0.00000 -0.50000 13.99038 0 0 0
18 0.00000 0.00000 14.85641 0 0 0
19 0.00000 -0.50000 15.72243 0 0 0
20 0.00000 0.00000 16.58846 0 0 0
21 0.00000 -0.50000 17.45448 0 0 0
22 0.00000 0.00000 18.32051 0 0 0
23 0.00000 -0.50000 19.18653 0 0 0
24 0.00000 0.00000 20.05256 0 0 0
25 0.00000 -0.50000 20.91858 0 0 0
26 0.00000 0.00000 21.78461 0 0 0
27 0.00000 -0.50000 22.65064 0 0 0
28 0.00000 0.00000 23.51666 0 0 0
29 0.00000 -0.50000 24.38269 0 0 0
30 0.00000 0.00000 25.24871 0 0 0
31 0.00000 -0.50000 26.11474 0 0 0
32 0.00000 0.00000 26.98076 0 0 0
33 0.00000 -0.50000 27.84679 0 0 0
34 0.00000 0.00000 28.71281 0 0 0
35 0.00000 -0.50000 29.57884 0 0 0
36 0.00000 0.00000 30.44486 0 0 0
37 0.00000 -0.50000 31.31089 0 0 0
38 0.00000 0.00000 32.17691 0 0 0
39 0.00000 -0.50000 33.04294 0 0 0
40 0.00000 0.00000 33.90897 0 0 0
41 0.00000 -0.50000 34.77499 0 0 0
42 -0.08364 0.14623 35.53354 0 0 0
43 -0.16729 0.32660 36.51357 0 0 0
44 -0.25093 1.26553 36.84738 0 0 0
45 -0.33458 1.44590 37.82741 0 0 0
46 -0.41822 2.38483 38.16122 0 0 0
47 -0.50187 2.56520 39.14126 0 0 0
48 -0.58551 3.50413 39.47506 0 0 0
49 -0.66915 3.68450 40.45510 0 0 0
50 -0.75280 4.62343 40.78890 0 0 0
51 -0.83644 4.80380 41.76894 0 0 0
52 -0.92009 5.74273 42.10275 0 0 0
53 -1.00373 5.92310 43.08278 0 0 0
54 -1.08738 6.86202 43.41659 0 0 0
55 -1.17102 7.04240 44.39662 0 0 0
56 -1.25466 7.98132 44.73043 0 0 0
57 -1.33831 8.16170 45.71046 0 0 0
58 -1.42195 9.10062 46.04427 0 0 0
59 -1.50560 9.28100 47.02430 0 0 0
60 -1.58924 10.21992 47.35811 0 0 0
61 -1.67289 10.40030 48.33815 0 0 0
62 -1.75653 11.33922 48.67195 0 0 0
63 -1.84017 11.51960 49.65199 0 0 0
64 -1.92382 12.45852 49.98579 0 0 0
65 -2.00746 12.63890 50.96583 0 0 0
66 -2.09111 13.57782 51.29964 0 0 0
67 -2.17475 13.75820 52.27967 0 0 0
68 -2.25839 14.69712 52.61348 0 0 0
69 -2.34204 14.87750 53.59351 0 0 0
70 -2.42568 15.81642 53.92732 0 0 0
71 -2.50933 15.99680 54.90735 0 0 0
72 -2.59297 16.93572 55.24116 0 0 0
73 -2.67662 17.11610 56.22120 0 0 0
74 -2.76026 18.05502 56.55500 0 0 0
75 -2.84390 18.23540 57.53504 0 0 0
76 -2.92755 19.17432 57.86884 0 0 0
77 -3.01119 19.35469 58.84888 0 0 0
78 -3.09484 20.29362 59.18269 0 0 0
79 -3.17848 20.47399 60.16272 0 0 0
80 -3.26213 21.41292 60.49653 0 0 0
81 -3.34577 21.59329 61.47656 0 0 0
82 0.85495 -1.01074 34.86556 0 0 0
83 1.70991 -1.49833 34.68864 0 0 0
84 2.56486 -1.89536 35.02244 0 0 0
85 3.41981 -2.38295 34.84551 0 0 0
86 4.27477 -2.77998 35.17932 0 0 0
87 5.12972 -3.26757 35.00239 0 0 0
88 5.98467 -3.66460 35.33620 0 0 0
89 6.83963 -4.15219 35.15927 0 0 0
90 7.69458 -4.54922 35.49308 0 0 0
91 8.54953 -5.03681 35.31615 0 0 0
92 9.40449 -5.43384 35.64995 0 0 0
93 10.25944 -5.92144 35.47302 0 0 0
94 11.11439 -6.31846 35.80683 0 0 0
95 11.96935 -6.80606 35.62990 0 0 0
96 12.82430 -7.20308 35.96371 0 0 0
97 13.67925 -7.69068 35.78678 0 0 0
98 14.53421 -8.08770 36.12059 0 0 0
99 15.38916 -8.57530 35.94366 0 0 0
100 16.24411 -8.97232 36.27746 0 0 0
101 17.09907 -9.45992 36.10054 0 0 0
102 17.95402 -9.85694 36.43434 0 0 0
103 18.80897 -10.34454 36.25741 0 0 0
104 19.66393 -10.74156 36.59122 0 0 0
105 20.51888 -11.22916 36.41429 0 0 0
106 21.37384 -11.62618 36.74810 0 0 0
107 22.22879 -12.11378 36.57117 0 0 0
108 23.08374 -12.51080 36.90498 0 0 0
109 23.93870 -12.99840 36.72805 0 0 0
110 24.79365 -13.39542 37.06185 0 0 0
111 25.64860 -13.88302 36.88493 0 0 0
112 26.50356 -14.28004 37.21873 0 0 0
113 27.35851 -14.76764 37.04180 0 0 0
114 28.21346 -15.16466 37.37561 0 0 0
115 29.06842 -15.65226 37.19868 0 0 0
116 29.92337 -16.04928 37.53249 0 0 0
117 30.77832 -16.53688 37.35556 0 0 0
118 31.63328 -16.93390 37.68937 0 0 0
119 32.48823 -17.42150 37.51244 0 0 0
120 33.34318 -17.81852 37.84624 0 0 0
121 34.19814 -18.30612 37.66931 0 0 0
122 -0.77131 -1.13620 34.79313 0 0 0
123 -1.54262 -1.69624 34.49073 0 0 0
124 -2.31393 -2.23814 34.82454 0 0 0
125 -3.08524 -2.79817 34.52214 0 0 0
126 -3.85655 -3.34007 34.85595 0 0 0
127 -4.62785 -3.90011 34.55355 0 0 0
128 -5.39916 -4.44201 34.88736 0 0 0
129 -6.17047 -5.00204 34.58497 0 0 0
130 -6.94178 -5.54394 34.91877 0 0 0
131 -7.71309 -6.10398 34.61638 0 0 0
132 -8.48440 -6.64588 34.95018 0 0 0
133 -9.25571 -7.20591 34.64779 0 0 0
134 -10.02702 -7.74781 34.98159 0 0 0
135 -10.79833 -8.30785 34.67920 0 0 0
136 -11.56964 -8.84974 35.01301 0 0 0
137 -12.34095 -9.40978 34.71061 0 0 0
138 -13.11226 -9.95168 35.04442 0 0 0
139 -13.88356 -10.51171 34.74202 0 0 0
140 -14.65487 -11.05361 35.07583 0 0 0
141 -15.42618 -11.61365 34.77343 0 0 0
142 -16.19749 -12.15555 35.10724 0 0 0
143 -16.96880 -12.71558 34.80485 0 0 0
144 -17.74011 -13.25748 35.13865 0 0 0
145 -18.51142 -13.81752 34.83626 0 0 0
146 -19.28273 -14.35942 35.17006 0 0 0
147 -20.05404 -14.91945 34.86767 0 0 0
148 -20.82535 -15.46135 35.20148 0 0 0
149 -21.59666 -16.02139 34.89908 0 0 0
150 -22.36797 -16.56329 35.23289 0 0 0
151 -23.13927 -17.12332 34.93049 0 0 0
152 -23.91058 -17.66522 35.26430 0 0 0
153 -24.68189 -18.22526 34.96190 0 0 0
154 -25.45320 -18.76716 35.29571 0 0 0
155 -26.22451 -19.32719 34.99331 0 0 0
156 -26.99582 -19.86909 35.32712 0 0 0
157 -27.76713 -20.42913 35.02473 0 0 0
158 -28.53844 -20.97103 35.35853 0 0 0
159 -29.30975 -21.53106 35.05614 0 0 0
160 -30.08106 -22.07296 35.38994 0 0 0
161 -30.85237 -22.63300 35.08755 0 0 0
162 -31.07899 -23.30010 35.79720 0 0 0
163 -31.30562 -24.23266 36.07823 0 0 0
164 -31.53225 -24.45556 37.02636 0 0 0
165 -31.75888 -25.38812 37.30738 0 0 0
166 -31.98550 -25.61103 38.25552 0 0 0
167 -32.21213 -26.54358 38.53654 0 0 0
168 -32.43876 -26.76649 39.48467 0 0 0
169 -32.66539 -27.69905 39.76570 0 0 0
170 -32.89202 -27.92195 40.71383 0 0 0
171 -33.11864 -28.85451 40.99486 0 0 0
172 -33.34527 -29.07741 41.94299 0 0 0
173 -33.57190 -30.00997 42.22401 0 0 0
174 -33.79853 -30.23287 43.17214 0 0 0
175 -34.02515 -31.16543 43.45317 0 0 0
176 -34.25178 -31.38834 44.40130 0 0 0
177 -34.47841 -32.32089 44.68233 0 0 0
178 -34.70504 -32.54380 45.63046 0 0 0
179 -34.93167 -33.47636 45.91148 0 0 0
180 -35.15829 -33.69926 46.85962 0 0 0
181 -35.38492 -34.63182 47.14064 0 0 0
182 -35.61155 -34.85472 48.08877 0 0 0
183 -35.83818 -35.78728 48.36980 0 0 0
184 -36.06480 -36.01018 49.31793 0 0 0
185 -36.29143 -36.94274 49.59895 0 0 0
186 -36.51806 -37.16565 50.54709 0 0 0
187 -36.74469 -38.09821 50.82811 0 0 0
188 -36.97132 -38.32111 51.77624 0 0 0
189 -37.19794 -39.25367 52.05727 0 0 0
190 -37.42457 -39.47657 53.00540 0 0 0
191 -37.65120 -40.40913 53.28643 0 0 0
192 -37.87783 -40.63203 54.23456 0 0 0
193 -38.10445 -41.56459 54.51558 0 0 0
194 -38.33108 -41.78750 55.46371 0 0 0
195 -38.55771 -42.72005 55.74474 0 0 0
196 -38.78434 -42.94296 56.69287 0 0 0
197 -39.01097 -43.87552 56.97390 0 0 0
198 -39.23759 -44.09842 57.92203 0 0 0
199 -39.46422 -45.03098 58.20305 0 0 0
200 -39.69085 -45.25388 59.15119 0 0 0
201 -39.91748 -46.18644 59.43221 0 0 0
202 -30.60637 -23.11324 34.24562 0 0 0
203 -30.36037 -23.10817 33.27636 0 0 0
204 -30.11437 -23.94504 32.78734 0 0 0
205 -29.86837 -23.93998 31.81809 0 0 0
206 -29.62236 -24.77684 31.32907 0 0 0
207 -29.37636 -24.77178 30.35982 0 0 0
208 -29.13036 -25.60865 29.87080 0 0 0
209 -28.88436 -25.60358 28.90154 0 0 0
210 -28.63836 -26.44045 28.41253 0 0 0
211 -28.39236 -26.43539 27.44327 0 0 0
212 -28.14636 -27.27225 26.95426 0 0 0
213 -27.90036 -27.26719 25.98500 0 0 0
214 -27.65436 -28.10406 25.49599 0 0 0
215 -27.40836 -28.09899 24.52673 0 0 0
216 -27.16236 -28.93586 24.03772 0 0 0
217 -26.91636 -28.93080 23.06846 0 0 0
218 -26.67036 -29.76766 22.57945 0 0 0
219 -26.42436 -29.76260 21.61019 0 0 0
220 -26.17836 -30.59947 21.12117 0 0 0
221 -25.93236 -30.59440 20.15192 0 0 0
222 -25.68636 -31.43127 19.66290 0 0 0
223 -25.44036 -31.42621 18.69365 0 0 0
224 -25.19436 -32.26307 18.20463 0 0 0
225 -24.94836 -32.25801 17.23538 0 0 0
226 -24.70236 -33.09488 16.74636 0 0 0
227 -24.45636 -33.08981 15.77710 0 0 0
228 -24.21036 -33.92668 15.28809 0 0 0
229 -23.96436 -33.92162 14.31883 0 0 0
230 -23.71836 -34.75848 13.82982 0 0 0
231 -23.47236 -34.75342 12.86056 0 0 0
232 -23.22636 -35.59029 12.37155 0 0 0
233 -22.98036 -35.58522 11.40229 0 0 0
234 -22.73436 -36.42209 10.91328 0 0 0
235 -22.48836 -36.41703 9.94402 0 0 0
236 -22.24236 -37.25389 9.45500 0 0 0
237 -21.99636 -37.24883 8.48575 0 0 0
238 -21.75036 -38.08570 7.99673 0 0 0
239 -21.50436 -38.08063 7.02748 0 0 0
240 -21.25836 -38.91750 6.53846 0 0 0
241 -21.01236 -38.91244 5.56921 0 0 0
242 -31.64414 -22.04648 34.91700 0 0 0
243 -32.43592 -21.45327 35.06256 0 0 0
244 -33.22770 -21.03060 34.62161 0 0 0
245 -34.01947 -20.43739 34.76717 0 0 0
246 -34.81125 -20.01472 34.32621 0 0 0
247 -35.60303 -19.42151 34.47178 0 0 0
248 -36.39481 -18.99884 34.03082 0 0 0
249 -37.18658 -18.40563 34.17638 0 0 0
250 -37.97836 -17.98296 33.73543 0 0 0
251 -38.77014 -17.38975 33.88099 0 0 0
252 -39.56192 -16.96709 33.44003 0 0 0
253 -40.35369 -16.37387 33.58559 0 0 0
254 -41.14547 -15.95121 33.14464 0 0 0
255 -41.93725 -15.35800 33.29020 0 0 0
256 -42.72902 -14.93533 32.84924 0 0 0
257 -43.52080 -14.34212 32.99481 0 0 0
258 -44.31258 -13.91945 32.55385 0 0 0
259 -45.10436 -13.32624 32.69941 0 0 0
260 -45.89613 -12.90357 32.25846 0 0 0
261 -46.68791 -12.31036 32.40402 0 0 0
262 -47.47969 -11.88769 31.96306 0 0 0
263 -48.27146 -11.29448 32.10862 0 0 0
264 -49.06324 -10.87182 31.66767 0 0 0
265 -49.85502 -10.27860 31.81323 0 0 0
266 -50.64680 -9.85594 31.37227 0 0 0
267 -51.43857 -9.26273 31.51784 0 0 0
268 -52.23035 -8.84006 31.07688 0 0 0
269 -53.02213 -8.24685 31.22244 0 0 0
270 -53.81391 -7.82418 30.78149 0 0 0
271 -54.60568 -7.23097 30.92705 0 0 0
272 -55.39746 -6.80830 30.48609 0 0 0
273 -56.18924 -6.21509 30.63165 0 0 0
274 -56.98101 -5.79242 30.19070 0 0 0
275 -57.77279 -5.19921 30.33626 0 0 0
276 -58.56457 -4.77655 29.89530 0 0 0
277 -59.35635 -4.18333 30.04087 0 0 0
278 -60.14812 -3.76067 29.59991 0 0 0
279 -60.93990 -3.16746 29.74547 0 0 0
280 -61.73168 -2.74479 29.30452 0 0 0
281 -62.52345 -2.15158 29.45008 0 0 0
282 -62.25122 -1.35961 29.99659 0 0 0
283 -61.97899 -0.94700 30.86587 0 0 0
284 -61.70675 0.01212 30.94318 0 0 0
285 -61.43452 0.42473 31.81246 0 0 0
286 -61.16228 1.38385 31.88977 0 0 0
287 -60.89005 1.79645 32.75904 0 0 0
288 -60.61781 2.75557 32.83635 0 0 0
289 -60.34558 3.16818 33.70563 0 0 0
290 -60.07334 4.12730 33.78294 0 0 0
291 -59.80111 4.53991 34.65222 0 0 0
292 -59.52887 5.49903 34.72953 0 0 0
293 -59.25664 5.91164 35.59881 0 0 0
294 -58.98441 6.87076 35.67612 0 0 0
295 -58.71217 7.28337 36.54539 0 0 0
296 -58.43994 8.24249 36.62270 0 0 0
297 -58.16770 8.65509 37.49198 0 0 0
298 -57.89547 9.61421 37.56929 0 0 0
299 -57.62323 10.02682 38.43857 0 0 0
300 -57.35100 10.98594 38.51588 0 0 0
301 -57.07876 11.39855 39.38516 0 0 0
302 -56.80653 12.35767 39.46247 0 0 0
303 -56.53429 12.77028 40.33174 0 0 0
304 -56.26206 13.72940 40.40905 0 0 0
305 -55.98982 14.14200 41.27833 0 0 0
306 -55.71759 15.10112 41.35564 0 0 0
307 -55.44536 15.51373 42.22492 0 0 0
308 -55.17312 16.47285 42.30223 0 0 0
309 -54.90089 16.88546 43.17151 0 0 0
310 -54.62865 17.84458 43.24882 0 0 0
311 -54.35642 18.25719 44.11809 0 0 0
312 -54.08418 19.21631 44.19540 0 0 0
313 -53.81195 19.62892 45.06468 0 0 0
314 -53.53971 20.58804 45.14199 0 0 0
315 -53.26748 21.00064 46.01127 0 0 0
316 -52.99524 21.95976 46.08858 0 0 0
317 -52.72301 22.37237 46.95786 0 0 0
318 -52.45078 23.33149 47.03517 0 0 0
319 -52.17854 23.74410 47.90444 0 0 0
320 -51.90631 24.70322 47.98175 0 0 0
321 -51.63407 25.11583 48.85103 0 0 0
322 -63.23695 -2.65959 29.93261 0 0 0
323 -63.95045 -3.34082 30.09649 0 0 0
324 -64.66394 -3.53951 30.76839 0 0 0
325 -65.37744 -4.22073 30.93227 0 0 0
326 -66.09094 -4.41942 31.60417 0 0 0
327 -66.80443 -5.10064 31.76805 0 0 0
328 -67.51793 -5.29933 32.43995 0 0 0
329 -68.23142 -5.98055 32.60383 0 0 0
330 -68.94492 -6.17924 33.27572 0 0 0
331 -69.65842 -6.86047 33.43960 0 0 0
332 -70.37191 -7.05915 34.11150 0 0 0
333 -71.08541 -7.74038 34.27538 0 0 0
334 -71.79891 -7.93907 34.94728 0 0 0
335 -72.51240 -8.62029 35.11116 0 0 0
336 -73.22590 -8.81898 35.78306 0 0 0
337 -73.93939 -9.50020 35.94694 0 0 0
338 -74.65289 -9.69889 36.61883 0 0 0
339 -75.36639 -10.38012 36.78271 0 0 0
340 -76.07988 -10.57880 37.45461 0 0 0
341 -76.79338 -11.26003 37.61849 0 0 0
342 -77.50688 -11.45871 38.29039 0 0 0
343 -78.22037 -12.13994 38.45427 0 0 0
344 -78.93387 -12.33863 39.12617 0 0 0
345 -79.64736 -13.01985 39.29005 0 0 0
346 -80.36086 -13.21854 39.96194 0 0 0
347 -81.07436 -13.89976 40.12582 0 0 0
348 -81.78785 -14.09845 40.79772 0 0 0
349 -82.50135 -14.77968 40.96160 0 0 0
350 -83.21485 -14.97836 41.63350 0 0 0
351 -83.92834 -15.65959 41.79738 0 0 0
352 -84.64184 -15.85828 42.46928 0 0 0
353 -85.35533 -16.53950 42.63316 0 0 0
354 -86.06883 -16.73819 43.30505 0 0 0
355 -86.78233 -17.41941 43.46894 0 0 0
356 -87.49582 -17.61810 44.14083 0 0 0
357 -88.20932 -18.29932 44.30471 0 0 0
358 -88.92282 -18.49801 44.97661 0 0 0
359 -89.63631 -19.17924 45.14049 0 0 0
360 -90.34981 -19.37792 45.81239 0 0 0
361 -91.06330 -20.05915 45.97627 0 0 0
362 -62.87510 -1.84147 28.56680 0 0 0
363 -63.22674 -1.13127 27.95691 0 0 0
364 -63.57838 -1.30435 27.03691 0 0 0
365 -63.93002 -0.59416 26.42702 0 0 0
366 -64.28166 -0.76724 25.50703 0 0 0
367 -64.63330 -0.05704 24.89713 0 0 0
368 -64.98494 -0.23012 23.97714 0 0 0
369 -65.33658 0.48008 23.36725 0 0 0
370 -65.68822 0.30700 22.44725 0 0 0
371 -66.03986 1.01720 21.83736 0 0 0
372 -66.39150 0.84411 20.91737 0 0 0
373 -66.74314 1.55431 20.30748 0 0 0
374 -67.09478 1.38123 19.38748 0 0 0
375 -67.44642 2.09143 18.77759 0 0 0
376 -67.79806 1.91835 17.85759 0 0 0
377 -68.14970 2.62855 17.24770 0 0 0
378 -68.50134 2.45547 16.32771 0 0 0
379 -68.85298 3.16567 15.71782 0 0 0
380 -69.20462 2.99258 14.79782 0 0 0
381 -69.55626 3.70278 14.18793 0 0 0
382 -69.90790 3.52970 13.26793 0 0 0
383 -70.25954 4.23990 12.65804 0 0 0
384 -70.61118 4.06682 11.73805 0 0 0
385 -70.96282 4.77702 11.12816 0 0 0
386 -71.31446 4.60394 10.20816 0 0 0
387 -71.66610 5.31413 9.59827 0 0 0
388 -72.01774 5.14105 8.67828 0 0 0
389 -72.36938 5.85125 8.06839 0 0 0
390 -72.72102 5.67817 7.14839 0 0 0
391 -73.07267 6.38837 6.53850 0 0 0
392 -73.42431 6.21529 5.61850 0 0 0
393 -73.77595 6.92549 5.00861 0 0 0
394 -74.12759 6.75241 4.08862 0 0 0
395 -74.47923 7.46260 3.47873 0 0 0
396 -74.83087 7.28952 2.55873 0 0 0
397 -75.18251 7.99972 1.94884 0 0 0
398 -75.53415 7.82664 1.02884 0 0 0
399 -75.88579 8.53684 0.41895 0 0 0
400 -76.23743 8.36376 -0.50104 0 0 0
401 -76.58907 9.07396 -1.11093 0 0 0
ITEM: TIMESTEP
1000
ITEM: NUMBER OF ATOMS
401
ITEM: BOX BOUNDS pp pp pp
-1.0000000000000000e+03 1.0000000000000000e+03
-1.0000000000000000e+03 1.0000000000000000e+03
-1.0000000000000000e+03 1.0000000000000000e+03
ITEM: ATOMS id x y z ix iy iz
1 0.35087 1.06782 3.94004 0 0 0
2 0.83047 0.81832 4.84022 0 0 0
3 0.73437 0.31731 5.65827 0 0 0
4 0.29989 -0.31362 6.36395 0 0 0
5 0.29677 0.52080 6.79940 0 0 0
6 1.24056 0.48659 7.09072 0 0 0
7 0.85254 0.27011 7.95064 0 0 0
8 0.78397 -0.23786 8.76769 0 0 0
9 0.05580 0.28197 9.01032 0 0 0
10 0.31289 1.00352 9.71251 0 0 0
11 1.08385 0.57907 10.23487 0 0 0
12 1.10839 0.07495 11.03277 0 0 0
13 1.00854 -0.42081 11.91281 0 0 0
14 0.72059 0.50676 12.07588 0 0 0
15 0.45258 0.95664 12.96612 0 0 0
16 0.53685 1.57367 13.73390 0 0 0
17 0.77258 1.15742 14.82026 0 0 0
18 0.60549 1.05718 15.72750 0 0 0
19 0.56074 1.13641 16.71383 0 0 0
20 0.10971 1.44924 17.50903 0 0 0
21 0.44869 1.58349 18.41168 0 0 0
22 0.68605 1.59069 19.37430 0 0 0
23 1.16225 1.61083 20.23464 0 0 0
24 1.51360 0.89473 20.94865 0 0 0
25 1.43671 0.49966 21.91459 0 0 0
26 1.23199 0.49164 22.90356 0 0 0
27 1.18328 0.85069 23.83450 0 0 0
28 1.19202 0.65051 24.78177 0 0 0
29 0.56126 0.52244 25.56851 0 0 0
30 0.19706 -0.32895 25.92128 0 0 0
31 -0.24644 -0.77028 26.63101 0 0 0
32 -0.04102 -0.96194 27.55393 0 0 0
33 0.32824 -0.91165 28.49362 0 0 0
34 0.17946 -1.26481 29.39281 0 0 0
35 0.32989 -0.53296 30.01798 0 0 0
36 0.27979 -0.81776 30.98211 0 0 0
37 0.02912 -1.11258 31.84200 0 0 0
38 -0.09694 -1.66632 32.62834 0 0 0
39 -0.65845 -1.56396 33.43442 0 0 0
40 -1.11468 -1.48448 34.31333 0 0 0
41 -0.98398 -1.30193 35.25707 0 0 0
42 -0.91101 -0.92432 36.19683 0 0 0
43 -0.42992 -0.19229 36.72133 0 0 0
44 -0.06151 0.22008 37.48612 0 0 0
45 -0.54006 0.81669 38.00852 0 0 0
46 -0.09863 1.48017 38.64359 0 0 0
47 -0.77717 2.06453 39.23028 0 0 0
48 -0.68048 2.33238 40.16842 0 0 0
49 -0.60931 3.14065 40.76631 0 0 0
50 -1.02893 3.78592 41.25713 0 0 0
51 -1.43188 4.24479 42.00899 0 0 0
52 -1.61376 4.53214 42.91632 0 0 0
53 -1.29681 5.04088 43.61718 0 0 0
54 -0.97292 5.28916 44.50152 0 0 0
55 -1.17009 5.88347 45.22854 0 0 0
56 -1.27977 6.76721 45.45434 0 0 0
57 -1.76909 6.64696 46.26061 0 0 0
58 -1.38425 7.40055 46.76355 0 0 0
59 -1.12127 8.24557 47.16738 0 0 0
60 -1.18299 8.98985 46.50504 0 0 0
61 -0.92108 9.52801 47.25620 0 0 0
62 -1.51760 10.28771 46.95339 0 0 0
63 -2.10280 10.91615 47.35842 0 0 0
64 -2.68267 11.29391 48.05257 0 0 0
65 -2.90870 11.60541 48.97831 0 0 0
66 -3.60703 12.08652 49.33467 0 0 0
67 -3.86950 12.74428 49.94518 0 0 0
68 -3.98588 13.55767 50.45532 0 0 0
69 -3.46498 14.36514 50.30527 0 0 0
70 -3.80054 14.93696 50.93844 0 0 0
71 -3.20691 14.96608 51.64186 0 0 0
72 -3.96281 15.65778 51.68404 0 0 0
73 -4.04125 15.74430 52.71316 0 0 0
74 -3.69321 15.28006 53.53513 0 0 0
75 -3.00231 15.35762 54.21784 0 0 0
76 -3.00567 15.94973 54.95049 0 0 0
77 -3.49235 16.57541 55.62810 0 0 0
78 -3.30610 17.41773 55.97897 0 0 0
79 -3.77541 18.23286 56.30399 0 0 0
80 -4.11522 18.44306 57.18594 0 0 0
81 -4.40854 17.44492 56.99489 0 0 0
82 -0.03661 -1.55517 34.86164 0 0 0
83 0.71806 -2.14527 34.98653 0 0 0
84 1.68982 -2.38718 35.18028 0 0 0
85 2.49167 -2.99893 34.96494 0 0 0
86 3.38447 -2.98617 35.20926 0 0 0
87 4.36082 -3.06068 35.07683 0 0 0
88 5.17507 -3.58290 35.20038 0 0 0
89 6.14629 -3.81711 35.31067 0 0 0
90 6.97148 -3.72711 35.91125 0 0 0
91 7.81407 -4.24144 35.96397 0 0 0
92 8.69610 -4.47158 35.65533 0 0 0
93 9.65186 -4.47430 35.06900 0 0 0
94 10.36198 -5.16592 34.92302 0 0 0
95 10.80993 -5.77882 35.57428 0 0 0
96 11.50304 -6.35079 36.10463 0 0 0
97 12.46039 -6.63761 36.11322 0 0 0
98 13.32936 -6.58817 35.67771 0 0 0
99 14.20531 -6.72198 35.17792 0 0 0
100 15.11113 -7.03972 35.06109 0 0 0
101 16.05138 -7.08998 35.40175 0 0 0
102 16.96911 -7.13971 35.48373 0 0 0
103 17.49500 -6.80921 34.80055 0 0 0
104 18.13161 -7.64050 34.67394 0 0 0
105 18.76736 -8.33367 34.25363 0 0 0
106 19.72194 -8.08638 34.28880 0 0 0
107 20.61102 -7.98759 34.83778 0 0 0
108 20.90334 -8.91983 34.98249 0 0 0
109 21.59570 -9.07665 35.72741 0 0 0
110 21.72290 -9.90531 36.23055 0 0 0
111 21.54131 -10.88656 36.35105 0 0 0
112 22.00557 -11.66064 36.68876 0 0 0
113 22.92825 -11.92786 36.83412 0 0 0
114 22.72397 -11.76734 37.76222 0 0 0
115 23.43946 -12.54792 37.84179 0 0 0
116 24.24628 -13.04044 37.42949 0 0 0
117 25.30594 -12.96274 37.37815 0 0 0
118 25.51125 -13.86740 37.74992 0 0 0
119 26.42221 -14.39432 37.91025 0 0 0
120 27.36239 -14.39311 37.70491 0 0 0
121 27.26000 -13.51740 37.98440 0 0 0
122 -1.93441 -1.25828 35.15065 0 0 0
123 -2.89508 -1.58176 35.38575 0 0 0
124 -3.67383 -2.22143 35.02470 0 0 0
125 -4.29438 -2.82758 35.63119 0 0 0
126 -5.06462 -3.23025 36.04496 0 0 0
127 -5.93283 -3.59194 36.43460 0 0 0
128 -6.57001 -4.52220 36.52879 0 0 0
129 -6.94369 -5.41596 36.36562 0 0 0
130 -7.81180 -5.93555 36.48985 0 0 0
131 -8.62643 -6.21157 36.07630 0 0 0
132 -9.48760 -6.66241 36.17807 0 0 0
133 -10.34220 -7.09880 36.20910 0 0 0
134 -11.21369 -7.62247 36.31879 0 0 0
135 -12.06498 -8.29555 36.21671 0 0 0
136 -12.66060 -9.08134 36.03189 0 0 0
137 -13.55770 -9.46858 36.03750 0 0 0
138 -14.53032 -9.59863 36.10757 0 0 0
139 -14.93001 -10.35774 35.72651 0 0 0
140 -15.64368 -11.01115 35.67834 0 0 0
141 -16.32937 -11.71127 35.37697 0 0 0
142 -16.96722 -12.32138 35.70134 0 0 0
143 -17.07808 -13.27279 35.39442 0 0 0
144 -17.98031 -13.61443 35.22829 0 0 0
145 -18.96126 -13.92714 35.48534 0 0 0
146 -19.53981 -14.75370 35.63817 0 0 0
147 -20.47666 -15.18163 35.62565 0 0 0
148 -20.94761 -15.93618 35.21224 0 0 0
149 -21.71801 -16.55599 35.23080 0 0 0
150 -22.52911 -17.12767 35.03265 0 0 0
151 -23.43207 -17.60548 35.16911 0 0 0
152 -24.22587 -18.18323 35.02537 0 0 0
153 -24.85678 -18.97307 35.20109 0 0 0
154 -25.72885 -19.49064 35.02746 0 0 0
155 -26.62581 -19.84002 34.95171 0 0 0
156 -27.53234 -20.25980 35.07835 0 0 0
157 -28.21245 -20.91425 35.27299 0 0 0
158 -28.81093 -21.64007 34.83304 0 0 0
159 -29.48699 -22.13537 34.38649 0 0 0
160 -30.31349 -22.28353 33.89659 0 0 0
161 -31.13883 -22.59883 34.32040 0 0 0
162 -31.15093 -22.97593 35.28259 0 0 0
163 -31.81043 -23.12620 36.02491 0 0 0
164 -31.97862 -23.95197 36.55394 0 0 0
165 -32.62810 -24.17368 37.28114 0 0 0
166 -33.18474 -24.22734 38.11999 0 0 0
167 -33.57013 -24.48170 39.01975 0 0 0
168 -33.94486 -25.28301 39.45899 0 0 0
169 -33.67108 -25.93494 40.19789 0 0 0
170 -33.70669 -26.49432 41.06339 0 0 0
171 -33.74604 -27.48247 41.25828 0 0 0
172 -33.45146 -27.93187 42.12967 0 0 0
173 -33.61764 -28.94226 42.33315 0 0 0
174 -33.26962 -29.81202 42.59029 0 0 0
175 -33.19647 -30.08432 43.54187 0 0 0
176 -33.40253 -30.81950 44.14582 0 0 0
177 -33.47469 -31.19669 45.13191 0 0 0
178 -33.76747 -31.82350 45.90341 0 0 0
179 -34.25126 -32.53682 46.35963 0 0 0
180 -34.48784 -33.44000 46.77812 0 0 0
181 -35.18411 -34.14810 47.06713 0 0 0
182 -35.80076 -34.93375 47.23088 0 0 0
183 -36.03316 -35.71030 47.77241 0 0 0
184 -36.50882 -36.45763 48.28697 0 0 0
185 -36.90554 -37.06948 48.89530 0 0 0
186 -37.49646 -37.55451 49.53863 0 0 0
187 -38.02981 -37.29968 50.36646 0 0 0
188 -38.43676 -37.73522 51.22545 0 0 0
189 -38.56486 -37.75457 52.17779 0 0 0
190 -39.12752 -38.55268 52.08785 0 0 0
191 -39.55218 -39.35746 52.18032 0 0 0
192 -39.87956 -39.93267 52.95347 0 0 0
193 -40.14455 -40.53470 53.67282 0 0 0
194 -40.03537 -41.21352 54.39035 0 0 0
195 -40.57837 -41.41861 55.23173 0 0 0
196 -40.39842 -42.03308 55.97614 0 0 0
197 -40.76933 -42.96208 55.88549 0 0 0
198 -40.52707 -43.81815 55.53696 0 0 0
199 -40.50209 -44.82867 55.54643 0 0 0
200 -39.99625 -45.65211 55.22426 0 0 0
201 -40.89643 -45.79230 55.60778 0 0 0
202 -30.88195 -23.28655 33.57976 0 0 0
203 -30.79575 -23.88550 32.73920 0 0 0
204 -30.10199 -24.18829 31.96363 0 0 0
205 -29.65717 -24.32197 31.09784 0 0 0
206 -29.21887 -24.29344 30.24929 0 0 0
207 -28.52212 -24.99502 30.10447 0 0 0
208 -28.65311 -24.52897 29.20072 0 0 0
209 -29.08019 -24.97648 28.46435 0 0 0
210 -29.09493 -25.13898 27.53555 0 0 0
211 -28.66389 -25.58399 26.74536 0 0 0
212 -27.99563 -25.51602 26.01197 0 0 0
213 -27.67905 -25.77863 25.07490 0 0 0
214 -27.33952 -26.02763 24.13813 0 0 0
215 -27.40395 -26.84053 23.52146 0 0 0
216 -27.32380 -27.42645 22.74828 0 0 0
217 -27.62934 -27.92940 21.97903 0 0 0
218 -27.16317 -28.40959 21.28881 0 0 0
219 -27.01737 -28.69420 20.30426 0 0 0
220 -26.65671 -28.77784 19.44380 0 0 0
221 -26.28449 -29.20825 18.66340 0 0 0
222 -25.92604 -29.90382 18.07278 0 0 0
223 -25.14403 -30.37656 17.58179 0 0 0
224 -24.45128 -30.05273 16.89160 0 0 0
225 -24.35753 -30.64076 16.06889 0 0 0
226 -24.21262 -31.41686 15.44722 0 0 0
227 -24.72684 -31.99760 14.75286 0 0 0
228 -24.23899 -32.91889 14.79181 0 0 0
229 -23.77057 -33.75996 14.41280 0 0 0
230 -23.69857 -34.49723 13.77663 0 0 0
231 -23.15757 -34.80600 12.98197 0 0 0
232 -23.09670 -34.93405 12.01522 0 0 0
233 -22.88242 -35.34495 11.15800 0 0 0
234 -22.20193 -34.76758 10.53148 0 0 0
235 -21.78440 -35.59119 10.14533 0 0 0
236 -21.72563 -36.54014 10.01477 0 0 0
237 -21.41076 -37.36810 10.46582 0 0 0
238 -20.82231 -38.26099 10.47148 0 0 0
239 -20.04471 -38.71339 10.89740 0 0 0
240 -19.17200 -38.93014 10.52731 0 0 0
241 -18.73995 -39.74590 10.21647 0 0 0
242 -31.97388 -22.05737 34.14831 0 0 0
243 -32.56384 -21.35487 33.75573 0 0 0
244 -33.13720 -20.61735 33.99931 0 0 0
245 -33.87571 -20.37519 33.38610 0 0 0
246 -34.90354 -20.39095 33.42135 0 0 0
247 -35.70837 -19.88555 33.50452 0 0 0
248 -36.47131 -19.59639 33.98691 0 0 0
249 -37.16131 -18.87741 34.15327 0 0 0
250 -38.07860 -18.70201 33.78228 0 0 0
251 -38.68509 -18.39257 33.08186 0 0 0
252 -39.49468 -17.91890 32.86233 0 0 0
253 -40.29878 -17.33787 32.76928 0 0 0
254 -41.05766 -16.79516 32.69028 0 0 0
255 -41.76701 -16.20305 32.88361 0 0 0
256 -42.65072 -15.76615 32.62077 0 0 0
257 -43.41141 -15.27500 32.12019 0 0 0
258 -43.79016 -14.32038 31.86969 0 0 0
259 -44.42472 -13.60069 31.95695 0 0 0
260 -45.24682 -13.18050 31.59553 0 0 0
261 -46.01184 -12.56137 31.50532 0 0 0
262 -46.92101 -12.16766 31.52906 0 0 0
263 -47.62724 -11.50863 31.68230 0 0 0
264 -48.32984 -10.88419 31.73397 0 0 0
265 -49.20440 -10.37931 31.97115 0 0 0
266 -50.04235 -9.64303 31.77020 0 0 0
267 -50.86004 -8.97521 31.66854 0 0 0
268 -50.93722 -7.88977 31.60118 0 0 0
269 -51.71731 -7.21188 31.69170 0 0 0
270 -52.65442 -6.92183 31.32525 0 0 0
271 -53.46919 -6.54856 31.57400 0 0 0
272 -54.49993 -6.51656 31.50974 0 0 0
273 -55.25638 -5.91155 31.82708 0 0 0
274 -55.92178 -5.30578 32.23472 0 0 0
275 -56.79451 -4.93265 32.14645 0 0 0
276 -57.83011 -4.58551 31.87049 0 0 0
277 -58.59514 -4.51388 31.25734 0 0 0
278 -59.42094 -4.03278 30.97774 0 0 0
279 -60.22689 -3.85559 30.41910 0 0 0
280 -61.00462 -3.34181 30.62827 0 0 0
281 -61.70988 -2.71506 30.90615 0 0 0
282 -61.75826 -2.15344 31.69342 0 0 0
283 -61.40997 -1.60128 32.44923 0 0 0
284 -61.17160 -0.71134 32.47458 0 0 0
285 -60.55180 -0.15411 33.05593 0 0 0
286 -60.10711 0.73494 33.32615 0 0 0
287 -59.71710 1.56223 32.98824 0 0 0
288 -59.42130 2.27237 33.54259 0 0 0
289 -59.64099 2.67706 34.42381 0 0 0
290 -59.31637 3.61004 34.50725 0 0 0
291 -59.09305 4.62675 34.63144 0 0 0
292 -58.81532 5.53848 34.42294 0 0 0
293 -58.63165 6.04453 35.22432 0 0 0
294 -59.16706 6.36868 35.98065 0 0 0
295 -59.07576 6.97939 36.68866 0 0 0
296 -58.45117 7.56296 37.35808 0 0 0
297 -57.50714 7.74544 37.45713 0 0 0
298 -57.34353 8.32619 38.27473 0 0 0
299 -57.79351 8.94506 38.87601 0 0 0
300 -57.85034 9.83570 38.55240 0 0 0
301 -57.67356 10.77612 38.58559 0 0 0
302 -57.15520 10.95604 39.41941 0 0 0
303 -56.65755 11.69257 39.70786 0 0 0
304 -56.44465 12.55283 40.19055 0 0 0
305 -55.74520 13.27513 40.12217 0 0 0
306 -55.80725 14.15019 40.44853 0 0 0
307 -55.30844 14.76192 41.15382 0 0 0
308 -54.46560 15.06476 41.65430 0 0 0
309 -53.92753 15.85860 41.93359 0 0 0
310 -54.04432 16.70679 42.43269 0 0 0
311 -53.91060 16.79532 43.44122 0 0 0
312 -53.55321 17.03616 44.35909 0 0 0
313 -53.00131 17.31347 45.11852 0 0 0
314 -52.29951 17.75946 44.61719 0 0 0
315 -52.51400 18.63699 44.36968 0 0 0
316 -52.91648 19.41946 43.97534 0 0 0
317 -52.73238 20.40807 44.02382 0 0 0
318 -51.94862 20.86343 43.74726 0 0 0
319 -51.97667 20.86003 44.75716 0 0 0
320 -52.10152 20.80136 45.71850 0 0 0
321 -52.62234 21.58215 46.03222 0 0 0
322 -62.43771 -3.39309 30.96491 0 0 0
323 -63.20880 -3.91297 31.41692 0 0 0
324 -63.80837 -4.45701 31.92064 0 0 0
325 -64.73125 -4.73728 31.92503 0 0 0
326 -65.54592 -4.75240 32.35727 0 0 0
327 -66.42396 -5.13020 32.64706 0 0 0
328 -66.99579 -5.76245 33.19302 0 0 0
329 -67.40411 -6.01550 34.02590 0 0 0
330 -68.29524 -6.42554 34.16214 0 0 0
331 -68.79097 -6.94598 34.80954 0 0 0
332 -69.47184 -7.25766 35.43896 0 0 0
333 -70.13074 -7.92984 35.98010 0 0 0
334 -71.01388 -8.00056 36.33940 0 0 0
335 -71.95130 -7.82841 36.56183 0 0 0
336 -72.64115 -8.23936 37.12377 0 0 0
337 -73.41103 -8.78700 37.09837 0 0 0
338 -74.20625 -9.31362 37.03333 0 0 0
339 -75.01239 -9.90362 37.24719 0 0 0
340 -75.47488 -10.28727 38.02434 0 0 0
341 -76.25772 -10.56507 38.46812 0 0 0
342 -76.90386 -11.03788 39.02532 0 0 0
343 -77.68248 -11.62628 38.91530 0 0 0
344 -78.42315 -12.27218 39.06832 0 0 0
345 -79.36153 -12.54150 39.25325 0 0 0
346 -79.69325 -13.38958 38.92264 0 0 0
347 -80.44434 -13.86080 39.38804 0 0 0
348 -81.26394 -14.29747 39.27594 0 0 0
349 -82.20406 -14.09895 39.55544 0 0 0
350 -83.01434 -13.69003 39.59867 0 0 0
351 -83.98435 -13.43841 39.72641 0 0 0
352 -84.29440 -14.29601 40.00055 0 0 0
353 -85.05777 -14.89399 39.74272 0 0 0
354 -85.68688 -15.59005 39.87358 0 0 0
355 -86.41481 -15.94699 40.51778 0 0 0
356 -87.34278 -16.22045 40.67986 0 0 0
357 -87.31955 -16.90507 41.41982 0 0 0
358 -87.39072 -16.67637 42.31889 0 0 0
359 -87.55478 -16.67225 43.26632 0 0 0
360 -88.04936 -17.48021 43.56113 0 0 0
361 -88.77329 -17.25922 42.96818 0 0 0
362 -61.89214 -2.76935 29.79627 0 0 0
363 -62.35979 -2.37664 29.06776 0 0 0
364 -62.70993 -2.10839 28.12598 0 0 0
365 -63.24053 -2.12398 27.32579 0 0 0
366 -63.54836 -1.59800 26.63974 0 0 0
367 -64.02502 -1.77627 25.71234 0 0 0
368 -64.79594 -1.17633 25.45607 0 0 0
369 -65.39524 -0.86122 24.80516 0 0 0
370 -66.10615 -0.58009 24.17484 0 0 0
371 -66.36911 -0.54441 23.22631 0 0 0
372 -66.51583 -0.39406 22.24348 0 0 0
373 -66.46556 -0.29598 21.21252 0 0 0
374 -67.28983 -0.08106 20.69142 0 0 0
375 -66.83288 0.23129 19.87050 0 0 0
376 -66.91873 0.91311 19.16189 0 0 0
377 -67.05762 1.72372 18.49534 0 0 0
378 -67.11016 1.12737 17.71220 0 0 0
379 -67.15339 1.31857 16.78701 0 0 0
380 -67.67692 2.01177 16.13540 0 0 0
381 -68.59585 2.04645 15.64357 0 0 0
382 -68.55051 2.66682 14.92816 0 0 0
383 -68.22450 3.43779 14.37750 0 0 0
384 -68.60017 4.20751 13.98181 0 0 0
385 -69.06846 4.71318 13.29135 0 0 0
386 -69.67152 4.88728 12.55953 0 0 0
387 -70.60596 4.98765 12.09419 0 0 0