ITEM: TIMESTEP
0
ITEM: NUMBER OF ATOMS
201
ITEM: BOX BOUNDS pp pp pp
-1.0000000000000000e+03 1.0000000000000000e+03
-1.0000000000000000e+03 1.0000000000000000e+03
-1.0000000000000000e+03 1.0000000000000000e+03
ITEM: ATOMS id x y z ix iy iz
1 0.00000 0.00000 0.00000 0 0 0
2 0.00000 0.00000 1.00000 0 0 0
3 0.00000 -0.50000 1.86603 0 0 0
4 0.00000 0.00000 2.73205 0 0 0
5 0.00000 -0.50000 3.59808 0 0 0
6 0.00000 0.00000 4.46410 0 0 0
7 0.00000 -0.50000 5.33013 0 0 0
8 0.00000 0.00000 6.19615 0 0 0
9 0.00000 -0.50000 7.06218 0 0 0
10 0.00000 0.00000 7.92820 0 0 0
11 0.00000 -0.50000 8.79423 0 0 0
12 0.00000 0.00000 9.66025 0 0 0
13 0.00000 -0.50000 10.52628 0 0 0
14 0.00000 0.00000 11.39230 0 0 0
15 0.00000 -0.50000 12.25833 0 0 0
16 0.00000 0.00000 13.12436 0 0 0
17 0.00000 -0.50000 13.99038 0 0 0
18 0.00000 0.00000 14.85641 0 0 0
19 0.00000 -0.50000 15.72243 0 0 0
20 0.00000 0.00000 16.58846 0 0 0
21 0.00000 -0.50000 17.45448 0 0 0
22 -0.69907 -0.11927 18.05975 0 0 0
23 -1.39814 -0.09217 18.77429 0 0 0
24 -2.09721 0.54018 19.10809 0 0 0
25 -2.79628 0.56728 19.82263 0 0 0
26 -3.49535 1.19963 20.15644 0 0 0
27 -4.19441 1.22673 20.87098 0 0 0
28 -4.89348 1.85908 21.20479 0 0 0
29 -5.59255 1.88618 21.91933 0 0 0
30 -6.29162 2.51854 22.25314 0 0 0
31 -6.99069 2.54563 22.96768 0 0 0
32 -7.68976 3.17799 23.30148 0 0 0
33 -8.38883 3.20508 24.01602 0 0 0
34 -9.08790 3.83744 24.34983 0 0 0
35 -9.78697 3.86453 25.06437 0 0 0
36 -10.48604 4.49689 25.39818 0 0 0
37 -11.18511 4.52398 26.11272 0 0 0
38 -11.88417 5.15634 26.44653 0 0 0
39 -12.58324 5.18343 27.16107 0 0 0
40 -13.28231 5.81579 27.49487 0 0 0
41 -13.98138 5.84288 28.20941 0 0 0
42 0.89717 -0.41642 17.88818 0 0 0
43 1.79434 -0.56089 18.30557 0 0 0
44 2.69152 -0.27166 18.63938 0 0 0
45 3.58869 -0.41612 19.05676 0 0 0
46 4.48586 -0.12689 19.39057 0 0 0
47 5.38303 -0.27136 19.80796 0 0 0
48 6.28020 0.01787 20.14176 0 0 0
49 7.17737 -0.12660 20.55915 0 0 0
50 8.07455 0.16264 20.89296 0 0 0
51 8.97172 0.01817 21.31034 0 0 0
52 9.86889 0.30740 21.64415 0 0 0
53 10.76606 0.16293 22.06154 0 0 0
54 11.66323 0.45217 22.39535 0 0 0
55 12.56041 0.30770 22.81273 0 0 0
56 13.45758 0.59693 23.14654 0 0 0
57 14.35475 0.45246 23.56393 0 0 0
58 15.25192 0.74169 23.89773 0 0 0
59 16.14909 0.59723 24.31512 0 0 0
60 17.04626 0.88646 24.64893 0 0 0
61 17.94344 0.74199 25.06631 0 0 0
62 -0.19810 -1.46502 17.28277 0 0 0
63 -0.39621 -2.21490 16.65156 0 0 0
64 -0.59431 -3.13649 16.98536 0 0 0
65 -0.79241 -3.88637 16.35415 0 0 0
66 -0.99051 -4.80796 16.68795 0 0 0
67 -1.18862 -5.55784 16.05674 0 0 0
68 -1.38672 -6.47943 16.39054 0 0 0
69 -1.58482 -7.22932 15.75933 0 0 0
70 -1.78292 -8.15091 16.09313 0 0 0
71 -1.98103 -8.90079 15.46192 0 0 0
72 -2.17913 -9.82238 15.79572 0 0 0
73 -2.37723 -10.57226 15.16451 0 0 0
74 -2.57534 -11.49385 15.49831 0 0 0
75 -2.77344 -12.24373 14.86710 0 0 0
76 -2.97154 -13.16532 15.20090 0 0 0
77 -3.16964 -13.91520 14.56968 0 0 0
78 -3.36775 -14.83679 14.90349 0 0 0
79 -3.56585 -15.58667 14.27227 0 0 0
80 -3.76395 -16.50826 14.60608 0 0 0
81 -3.96205 -17.25814 13.97486 0 0 0
82 -3.25928 -17.96395 14.06397 0 0 0
83 -2.55650 -18.61974 13.78823 0 0 0
84 -1.85372 -19.18644 14.21830 0 0 0
85 -1.15095 -19.84224 13.94256 0 0 0
86 -0.44817 -20.40894 14.37262 0 0 0
87 0.25461 -21.06474 14.09688 0 0 0
88 0.95739 -21.63143 14.52695 0 0 0
89 1.66016 -22.28723 14.25121 0 0 0
90 2.36294 -22.85393 14.68128 0 0 0
91 3.06572 -23.50973 14.40554 0 0 0
92 3.76849 -24.07642 14.83561 0 0 0
93 4.47127 -24.73222 14.55987 0 0 0
94 5.17405 -25.29892 14.98994 0 0 0
95 5.87683 -25.95472 14.71420 0 0 0
96 6.57960 -26.52141 15.14427 0 0 0
97 7.28238 -27.17721 14.86853 0 0 0
98 7.98516 -27.74391 15.29860 0 0 0
99 8.68794 -28.39971 15.02286 0 0 0
100 9.39071 -28.96640 15.45293 0 0 0
101 10.09349 -29.62220 15.17719 0 0 0
102 -3.96894 -16.91182 13.03677 0 0 0
103 -3.97583 -16.14285 12.39752 0 0 0
104 -3.98271 -16.31198 11.41195 0 0 0
105 -3.98960 -15.54301 10.77270 0 0 0
106 -3.99649 -15.71214 9.78713 0 0 0
107 -4.00337 -14.94317 9.14787 0 0 0
108 -4.01026 -15.11230 8.16230 0 0 0
109 -4.01715 -14.34333 7.52305 0 0 0
110 -4.02403 -14.51246 6.53748 0 0 0
111 -4.03092 -13.74349 5.89823 0 0 0
112 -4.03781 -13.91262 4.91266 0 0 0
113 -4.04469 -13.14365 4.27341 0 0 0
114 -4.05158 -13.31278 3.28784 0 0 0
115 -4.05847 -12.54381 2.64858 0 0 0
116 -4.06535 -12.71294 1.66301 0 0 0
117 -4.07224 -11.94397 1.02376 0 0 0
118 -4.07913 -12.11310 0.03819 0 0 0
119 -4.08601 -11.34413 -0.60106 0 0 0
120 -4.09290 -11.51326 -1.58663 0 0 0
121 -4.09979 -10.74429 -2.22589 0 0 0
122 -4.85633 -17.64959 14.19174 0 0 0
123 -5.75060 -18.09704 14.18383 0 0 0
124 -6.64488 -18.32761 14.56738 0 0 0
125 -7.53915 -18.77506 14.55947 0 0 0
126 -8.43343 -19.00563 14.94302 0 0 0
127 -9.32770 -19.45308 14.93512 0 0 0
128 -10.22198 -19.68365 15.31866 0 0 0
129 -11.11625 -20.13110 15.31076 0 0 0
130 -12.01053 -20.36167 15.69430 0 0 0
131 -12.90480 -20.80912 15.68640 0 0 0
132 -13.79908 -21.03970 16.06995 0 0 0
133 -14.69335 -21.48714 16.06204 0 0 0
134 -15.58763 -21.71772 16.44559 0 0 0
135 -16.48190 -22.16516 16.43768 0 0 0
136 -17.37618 -22.39574 16.82123 0 0 0
137 -18.27045 -22.84318 16.81332 0 0 0
138 -19.16473 -23.07376 17.19687 0 0 0
139 -20.05900 -23.52121 17.18896 0 0 0
140 -20.95328 -23.75178 17.57251 0 0 0
141 -21.84755 -24.19923 17.56460 0 0 0
142 -22.55839 -23.52124 17.37742 0 0 0
143 -23.26924 -22.84050 17.55431 0 0 0
144 -23.98008 -22.34694 17.05321 0 0 0
145 -24.69093 -21.66619 17.23010 0 0 0
146 -25.40177 -21.17263 16.72900 0 0 0
147 -26.11262 -20.49189 16.90589 0 0 0
148 -26.82346 -19.99833 16.40480 0 0 0
149 -27.53430 -19.31759 16.58169 0 0 0
150 -28.24515 -18.82402 16.08059 0 0 0
151 -28.95599 -18.14328 16.25748 0 0 0
152 -29.66684 -17.64972 15.75638 0 0 0
153 -30.37768 -16.96898 15.93327 0 0 0
154 -31.08853 -16.47541 15.43217 0 0 0
155 -31.79937 -15.79467 15.60906 0 0 0
156 -32.51021 -15.30111 15.10797 0 0 0
157 -33.22106 -14.62037 15.28485 0 0 0
158 -33.93190 -14.12681 14.78376 0 0 0
159 -34.64275 -13.44606 14.96065 0 0 0
160 -35.35359 -12.95250 14.45955 0 0 0
161 -36.06443 -12.27176 14.63644 0 0 0
162 -22.01708 -24.62216 18.45476 0 0 0
163 -22.18660 -25.43352 19.01419 0 0 0
164 -22.35613 -25.35471 19.99656 0 0 0
165 -22.52566 -26.16607 20.55600 0 0 0
166 -22.69518 -26.08726 21.53837 0 0 0
167 -22.86471 -26.89861 22.09780 0 0 0
168 -23.03423 -26.81981 23.08017 0 0 0
169 -23.20376 -27.63116 23.63960 0 0 0
170 -23.37329 -27.55236 24.62197 0 0 0
171 -23.54281 -28.36371 25.18141 0 0 0
172 -23.71234 -28.28490 26.16378 0 0 0
173 -23.88187 -29.09626 26.72321 0 0 0
174 -24.05139 -29.01745 27.70558 0 0 0
175 -24.22092 -29.82881 28.26501 0 0 0
176 -24.39044 -29.75000 29.24738 0 0 0
177 -24.55997 -30.56135 29.80681 0 0 0
178 -24.72950 -30.48255 30.78918 0 0 0
179 -24.89902 -31.29390 31.34862 0 0 0
180 -25.06855 -31.21510 32.33099 0 0 0
181 -25.23808 -32.02645 32.89042 0 0 0
182 -21.86272 -24.90236 16.85370 0 0 0
183 -21.87790 -25.15584 15.88648 0 0 0
184 -21.89307 -26.12022 15.62239 0 0 0
185 -21.90825 -26.37370 14.65517 0 0 0
186 -21.92342 -27.33808 14.39108 0 0 0
187 -21.93860 -27.59156 13.42386 0 0 0
188 -21.95377 -28.55594 13.15977 0 0 0
189 -21.96895 -28.80942 12.19255 0 0 0
190 -21.98412 -29.77380 11.92846 0 0 0
191 -21.99930 -30.02728 10.96124 0 0 0
192 -22.01447 -30.99166 10.69715 0 0 0
193 -22.02964 -31.24514 9.72993 0 0 0
194 -22.04482 -32.20952 9.46584 0 0 0
195 -22.05999 -32.46300 8.49862 0 0 0
196 -22.07517 -33.42738 8.23453 0 0 0
197 -22.09034 -33.68086 7.26731 0 0 0
198 -22.10552 -34.64524 7.00322 0 0 0
199 -22.12069 -34.89872 6.03600 0 0 0
200 -22.13587 -35.86310 5.77191 0 0 0
201 -22.15104 -36.11658 4.80469 0 0 0
ITEM: TIMESTEP
1000
ITEM: NUMBER OF ATOMS
201
ITEM: BOX BOUNDS pp pp pp
-1.0000000000000000e+03 1.0000000000000000e+03
-1.0000000000000000e+03 1.0000000000000000e+03
-1.0000000000000000e+03 1.0000000000000000e+03
ITEM: ATOMS id x y z ix iy iz
1 -3.05781 -0.34232 3.87966 0 0 0
2 -2.95430 -0.84919 4.70105 0 0 0
3 -2.23978 -0.59879 5.34344 0 0 0
4 -2.02601 -0.03127 6.10986 0 0 0
5 -1.22839 -0.64444 6.23757 0 0 0
6 -0.97467 -1.22706 6.96395 0 0 0
7 -0.55718 -1.72111 7.66577 0 0 0
8 -0.93332 -1.14416 8.32555 0 0 0
9 -0.44848 -1.59018 9.12072 0 0 0
10 0.35973 -1.13661 9.43277 0 0 0
11 0.08552 -0.28541 9.76889 0 0 0
12 0.68725 -0.22917 10.62084 0 0 0
13 1.18933 -0.74189 11.26767 0 0 0
14 1.21745 -0.47751 12.21381 0 0 0
15 0.44697 -0.32293 12.79302 0 0 0
16 0.24900 0.05738 13.67032 0 0 0
17 0.46467 -0.83826 13.97713 0 0 0
18 0.01555 -0.94815 14.84730 0 0 0
19 -0.24689 -1.38534 15.76111 0 0 0
20 -0.41054 -1.60098 16.68100 0 0 0
21 -0.51629 -1.76842 17.64343 0 0 0
22 -1.08675 -1.05824 18.08353 0 0 0
23 -1.29338 -0.07395 18.15292 0 0 0
24 -2.08251 0.35197 17.73645 0 0 0
25 -2.23585 0.85135 18.52834 0 0 0
26 -2.60009 0.98926 19.40603 0 0 0
27 -3.44008 1.52201 19.33601 0 0 0
28 -3.92211 2.07288 19.96419 0 0 0
29 -3.90441 2.59470 20.78974 0 0 0
30 -4.44418 2.92904 21.57284 0 0 0
31 -5.31001 2.92626 21.97482 0 0 0
32 -5.71833 3.23703 22.95157 0 0 0
33 -6.63483 2.98845 22.66583 0 0 0
34 -7.32096 3.03134 22.02762 0 0 0
35 -7.94688 3.09772 22.82266 0 0 0
36 -8.63778 3.73882 23.25409 0 0 0
37 -9.51921 4.15610 23.61878 0 0 0
38 -10.00198 4.94689 23.98980 0 0 0
39 -10.63463 4.31527 24.37784 0 0 0
40 -11.42920 4.59517 23.90612 0 0 0
41 -11.94390 5.37914 23.67108 0 0 0
42 0.43933 -1.68548 17.91934 0 0 0
43 0.84171 -1.28896 18.80116 0 0 0
44 1.62566 -1.71690 19.25342 0 0 0
45 2.49693 -2.18820 19.29939 0 0 0
46 2.91822 -2.38884 20.21048 0 0 0
47 3.92232 -2.58433 20.23486 0 0 0
48 4.68990 -1.99732 20.48354 0 0 0
49 5.36763 -1.37519 20.63418 0 0 0
50 6.29510 -1.14352 20.37654 0 0 0
51 6.94985 -0.62251 20.85695 0 0 0
52 7.04190 -0.56096 21.80743 0 0 0
53 8.03569 -0.67501 21.89608 0 0 0
54 9.09831 -0.43073 21.82445 0 0 0
55 8.80002 0.37954 21.40116 0 0 0
56 9.48197 0.98912 21.77514 0 0 0
57 10.15154 1.37204 21.26052 0 0 0
58 10.67029 1.54474 20.44739 0 0 0
59 11.61262 1.24682 20.39175 0 0 0
60 12.42637 1.56984 20.78337 0 0 0
61 13.16188 1.51415 21.46975 0 0 0
62 -0.84865 -2.68905 17.33022 0 0 0
63 -0.16270 -3.44082 17.26408 0 0 0
64 -0.53969 -4.39190 17.22535 0 0 0
65 -0.85864 -5.40078 17.50763 0 0 0
66 -1.45747 -6.08737 17.76844 0 0 0
67 -2.05793 -6.81403 17.83215 0 0 0
68 -2.29238 -7.86759 17.94719 0 0 0
69 -2.04321 -8.74197 17.64553 0 0 0
70 -1.83669 -9.67969 17.64833 0 0 0
71 -1.69320 -10.34223 17.00318 0 0 0
72 -2.24713 -11.19665 16.76719 0 0 0
73 -3.07384 -11.72769 16.77109 0 0 0
74 -3.69658 -12.26838 16.22068 0 0 0
75 -3.71724 -13.24928 16.05923 0 0 0
76 -3.66041 -13.80573 15.18929 0 0 0
77 -4.04630 -14.56917 14.62124 0 0 0
78 -4.39804 -15.03912 13.85412 0 0 0
79 -4.30451 -15.93513 14.08351 0 0 0
80 -4.30830 -16.96153 14.17939 0 0 0
81 -4.90658 -17.21115 13.42630 0 0 0
82 -4.42815 -17.80794 12.73918 0 0 0
83 -3.80003 -18.56653 12.86836 0 0 0
84 -3.20337 -19.07196 13.49315 0 0 0
85 -2.80301 -20.06733 13.35766 0 0 0
86 -2.58442 -21.03864 12.96095 0 0 0
87 -1.59679 -20.90604 12.87692 0 0 0
88 -0.77285 -21.44484 13.12654 0 0 0
89 -0.43859 -22.30227 13.35177 0 0 0
90 0.52522 -22.17622 13.20050 0 0 0
91 1.45237 -22.18731 12.99846 0 0 0
92 2.38163 -22.46062 13.28382 0 0 0
93 2.91013 -23.02677 13.81681 0 0 0
94 3.30641 -23.83046 13.51086 0 0 0
95 4.28973 -23.83893 13.71340 0 0 0
96 5.27886 -24.14490 13.38068 0 0 0
97 5.55265 -24.85635 14.08794 0 0 0
98 5.61903 -25.80445 14.02153 0 0 0
99 5.62982 -26.68707 14.32307 0 0 0
100 4.73534 -27.07535 14.02897 0 0 0
101 5.40420 -27.62422 13.68581 0 0 0
102 -5.03380 -16.60509 12.75465 0 0 0
103 -5.59368 -16.25431 12.03300 0 0 0
104 -6.13204 -15.65415 11.62340 0 0 0
105 -5.50921 -14.90689 11.24983 0 0 0
106 -5.39942 -14.04837 10.81197 0 0 0
107 -6.19186 -13.82445 10.18717 0 0 0
108 -6.16855 -12.85396 10.04926 0 0 0
109 -6.41349 -13.14628 9.17044 0 0 0
110 -7.15127 -12.75669 8.62809 0 0 0
111 -7.10507 -12.55301 7.65589 0 0 0
112 -6.36698 -12.67355 6.95221 0 0 0
113 -6.33984 -12.24451 6.02552 0 0 0
114 -6.09489 -11.98185 5.09973 0 0 0
115 -5.66390 -12.24778 4.15903 0 0 0
116 -5.26715 -12.31483 3.30184 0 0 0
117 -4.97686 -12.30305 2.32155 0 0 0
118 -4.66810 -11.41890 2.05876 0 0 0
119 -5.37489 -11.53043 1.42352 0 0 0
120 -4.46870 -11.64811 1.09170 0 0 0
121 -4.43485 -10.68026 1.25126 0 0 0
122 -5.68805 -17.68200 13.77740 0 0 0
123 -6.09291 -18.53751 13.86894 0 0 0
124 -7.10967 -18.88727 13.77533 0 0 0
125 -8.02640 -19.13582 13.63242 0 0 0
126 -8.74667 -19.80728 13.78702 0 0 0
127 -9.73133 -19.92721 13.59267 0 0 0
128 -10.66835 -19.76601 13.83700 0 0 0
129 -11.51108 -20.21241 14.36117 0 0 0
130 -12.26666 -20.80198 14.27619 0 0 0
131 -13.19486 -21.20875 14.41960 0 0 0
132 -14.09743 -21.15439 14.74411 0 0 0
133 -14.97788 -21.26261 15.09732 0 0 0
134 -15.71444 -21.95679 15.51848 0 0 0
135 -16.58862 -22.31180 15.55700 0 0 0
136 -17.19769 -22.96394 15.94042 0 0 0
137 -18.02354 -22.76589 16.55151 0 0 0
138 -18.91660 -22.75203 16.99073 0 0 0
139 -19.86161 -22.89832 16.94477 0 0 0
140 -20.59528 -23.54876 16.50326 0 0 0
141 -21.50745 -23.72925 16.89857 0 0 0
142 -22.30500 -23.11364 16.96466 0 0 0
143 -22.69922 -22.14020 17.03905 0 0 0
144 -23.48832 -21.67796 17.42764 0 0 0
145 -24.15092 -20.96442 17.62948 0 0 0
146 -24.73899 -20.79677 18.38789 0 0 0
147 -25.03797 -19.87816 18.65269 0 0 0
148 -25.90916 -19.48315 19.05063 0 0 0
149 -26.84639 -19.13951 18.97981 0 0 0
150 -27.36316 -18.46483 18.60988 0 0 0
151 -27.68212 -18.30329 17.66028 0 0 0
152 -28.53444 -17.99995 17.32983 0 0 0
153 -29.49149 -17.88984 17.48528 0 0 0
154 -30.11448 -17.29362 17.88926 0 0 0
155 -30.40231 -16.74322 17.05004 0 0 0
156 -31.34185 -16.61375 16.81087 0 0 0
157 -32.09591 -16.49152 16.19014 0 0 0
158 -31.85817 -15.82708 15.48545 0 0 0
159 -31.93852 -14.85842 15.82893 0 0 0
160 -31.52093 -14.06096 16.33757 0 0 0
161 -31.45343 -13.10682 16.59884 0 0 0
162 -22.27123 -24.28910 17.14162 0 0 0
163 -22.21830 -24.84098 17.93179 0 0 0
164 -22.55090 -25.51366 18.55005 0 0 0
165 -22.87612 -24.72507 19.06075 0 0 0
166 -23.36915 -25.42327 19.53397 0 0 0
167 -23.81895 -25.48064 20.44265 0 0 0
168 -23.83842 -25.39533 21.51093 0 0 0
169 -24.55605 -25.53649 22.09689 0 0 0
170 -24.55418 -26.41858 22.59727 0 0 0
171 -24.09679 -26.60416 23.46174 0 0 0
172 -23.58465 -27.13475 24.16193 0 0 0
173 -23.18306 -28.03838 24.36115 0 0 0
174 -23.15742 -27.61551 25.24755 0 0 0
175 -23.01555 -27.57389 26.21524 0 0 0
176 -23.89803 -27.50615 26.60292 0 0 0
177 -23.85249 -27.05933 27.49138 0 0 0
178 -24.59677 -26.45203 27.72188 0 0 0
179 -25.15853 -27.19411 28.16470 0 0 0
180 -25.66482 -28.01087 27.90425 0 0 0
181 -26.67707 -28.35548 27.99010 0 0 0
182 -21.47598 -24.17669 15.99900 0 0 0
183 -21.63235 -23.86046 15.08983 0 0 0
184 -22.04224 -24.47768 14.42415 0 0 0
185 -22.82979 -24.92758 14.15692 0 0 0
186 -22.90888 -25.89374 14.19006 0 0 0
187 -22.54910 -26.46139 13.51781 0 0 0
188 -21.64676 -26.85571 13.47883 0 0 0
189 -21.32686 -27.55464 12.90444 0 0 0
190 -21.95376 -28.22659 12.99372 0 0 0
191 -21.09055 -28.53811 13.37566 0 0 0
192 -20.47486 -29.20904 12.93014 0 0 0
193 -19.83512 -29.63324 12.30964 0 0 0
194 -20.33677 -30.50093 12.18391 0 0 0
195 -20.86624 -31.28548 11.89014 0 0 0
196 -20.88918 -31.83844 11.11604 0 0 0
197 -20.86190 -32.76099 11.47427 0 0 0
198 -21.04025 -33.51776 10.99703 0 0 0
199 -20.75046 -33.96858 10.06994 0 0 0
200 -21.34856 -34.71095 10.05842 0 0 0
201 -20.58818 -35.29501 10.30064 0 0 0
ITEM: TIMESTEP
2000
ITEM: NUMBER OF ATOMS
201
ITEM: BOX BOUNDS pp pp pp
-1.0000000000000000e+03 1.0000000000000000e+03
-1.0000000000000000e+03 1.0000000000000000e+03
-1.0000000000000000e+03 1.0000000000000000e+03
ITEM: ATOMS id x y z ix iy iz
1 -3.84094 -0.18521 6.15143 0 0 0
2 -3.89977 -0.81886 6.89880 0 0 0
3 -3.31320 -0.61147 7.70036 0 0 0
4 -2.37104 -0.60594 7.72418 0 0 0
5 -1.60888 -0.51890 8.39985 0 0 0
6 -1.59786 -1.12491 9.18857 0 0 0
7 -0.66570 -1.13476 8.83747 0 0 0
8 -0.09921 -1.15229 9.58678 0 0 0
9 0.11456 -1.68147 10.39752 0 0 0
10 -0.57723 -1.75481 11.03583 0 0 0
11 -1.24099 -1.29039 11.48850 0 0 0
12 -1.40772 -1.79208 12.35120 0 0 0
13 -1.73584 -1.88851 13.26734 0 0 0
14 -1.80268 -1.81840 14.25414 0 0 0
15 -1.75417 -1.32661 15.12702 0 0 0
16 -1.07196 -1.88048 15.60724 0 0 0
17 -0.66695 -2.16116 16.50136 0 0 0
18 0.32593 -2.25959 16.38705 0 0 0
19 -0.03244 -2.24360 17.35928 0 0 0
20 -0.61767 -2.74154 17.90602 0 0 0
21 -0.69926 -3.01000 18.80193 0 0 0
22 -1.38029 -2.25807 18.65419 0 0 0
23 -2.36498 -2.10319 18.97467 0 0 0
24 -2.58611 -2.10718 19.90967 0 0 0
25 -2.77486 -1.72681 20.81420 0 0 0
26 -3.79811 -1.83256 20.90812 0 0 0
27 -4.42356 -1.28425 20.37248 0 0 0
28 -4.57667 -0.50777 20.98111 0 0 0
29 -4.63368 0.45275 21.29770 0 0 0
30 -4.27222 1.31948 21.43765 0 0 0
31 -4.59268 2.29065 21.47595 0 0 0
32 -5.28381 2.44396 20.83459 0 0 0
33 -5.65942 3.34282 20.61284 0 0 0
34 -6.22267 4.18215 20.34476 0 0 0
35 -6.93702 4.29461 21.04426 0 0 0
36 -7.99977 4.31873 21.29422 0 0 0
37 -7.94850 5.25010 21.73703 0 0 0
38 -8.43515 6.15558 21.61473 0 0 0
39 -9.17504 6.67393 21.54515 0 0 0
40 -10.14111 6.66903 21.54046 0 0 0
41 -10.30598 6.88577 22.48021 0 0 0
42 0.01472 -2.85855 19.41852 0 0 0
43 0.99766 -2.68909 19.37945 0 0 0
44 1.76037 -2.80362 18.76122 0 0 0
45 2.57858 -2.26377 18.86510 0 0 0
46 3.52656 -2.63477 19.02648 0 0 0
47 4.36312 -3.13479 19.14517 0 0 0
48 5.17761 -3.02207 19.59601 0 0 0
49 6.09867 -3.24383 19.51532 0 0 0
50 7.01014 -2.83725 19.67213 0 0 0
51 7.87237 -3.09548 20.06642 0 0 0
52 8.74250 -2.80927 19.82830 0 0 0
53 9.38017 -2.01941 19.89434 0 0 0
54 10.08435 -1.34179 19.63634 0 0 0
55 10.06295 -0.39940 19.55745 0 0 0
56 10.83610 0.24945 19.41000 0 0 0
57 10.18578 1.05401 19.38499 0 0 0
58 10.04730 1.26035 20.37857 0 0 0
59 9.99751 2.17315 20.67495 0 0 0
60 10.76774 2.24927 21.26632 0 0 0
61 11.09866 2.39928 22.18033 0 0 0
62 -1.33020 -3.87759 18.67179 0 0 0
63 -1.12930 -4.72896 18.20572 0 0 0
64 -0.90016 -5.35671 18.91209 0 0 0
65 -1.70308 -5.99243 19.31673 0 0 0
66 -2.31034 -6.60900 18.92851 0 0 0
67 -3.17030 -6.86609 18.68904 0 0 0
68 -3.09805 -7.81229 18.51923 0 0 0
69 -2.84932 -8.15596 17.54600 0 0 0
70 -2.83271 -8.96299 16.92561 0 0 0
71 -3.48520 -9.67721 16.89723 0 0 0
72 -4.03586 -10.45463 16.68089 0 0 0
73 -4.42225 -11.31488 16.87946 0 0 0
74 -4.27175 -11.75067 16.04096 0 0 0
75 -4.32390 -12.61808 15.66422 0 0 0
76 -3.56978 -13.18278 15.34666 0 0 0
77 -4.06241 -14.08015 15.19696 0 0 0
78 -4.67838 -14.84591 14.96605 0 0 0
79 -5.41403 -15.50062 14.91719 0 0 0
80 -5.95027 -16.36788 14.87352 0 0 0
81 -5.27630 -16.91802 14.28590 0 0 0
82 -4.73022 -17.58522 13.79542 0 0 0
83 -4.48032 -18.48808 13.62907 0 0 0
84 -4.42054 -19.18024 12.91575 0 0 0
85 -3.75051 -19.91825 12.88214 0 0 0
86 -3.76819 -20.92417 12.87356 0 0 0
87 -3.24710 -21.29024 13.73117 0 0 0
88 -2.58534 -21.95280 14.01202 0 0 0
89 -1.66728 -21.87638 14.22149 0 0 0
90 -1.09104 -22.44881 14.73785 0 0 0
91 -0.49065 -23.11993 14.35592 0 0 0
92 0.51965 -23.16855 14.11946 0 0 0
93 1.47430 -23.27582 14.10055 0 0 0
94 2.41047 -23.58108 14.36855 0 0 0
95 2.63631 -24.37201 14.89344 0 0 0
96 3.27957 -24.15319 14.23314 0 0 0
97 3.94023 -23.51088 13.80033 0 0 0
98 4.63827 -24.05343 14.39661 0 0 0
99 5.19746 -24.49419 15.02003 0 0 0
100 5.16860 -23.68528 15.56085 0 0 0
101 5.57954 -22.89656 15.22374 0 0 0
102 -5.47013 -16.92037 13.34435 0 0 0
103 -5.34773 -16.94424 12.43991 0 0 0
104 -5.73479 -16.90216 11.54136 0 0 0
105 -5.68360 -16.82317 10.60109 0 0 0
106 -5.31322 -16.00422 10.19657 0 0 0
107 -4.89577 -15.13128 10.31449 0 0 0
108 -4.90548 -15.13416 9.33689 0 0 0
109 -4.37241 -14.47185 8.80919 0 0 0
110 -4.10507 -13.96857 8.10016 0 0 0
111 -4.48967 -14.08129 7.20048 0 0 0
112 -4.72411 -13.54607 6.43307 0 0 0
113 -5.05657 -12.72508 5.96951 0 0 0
114 -5.50374 -11.89554 5.70146 0 0 0
115 -4.87670 -11.30502 5.26019 0 0 0
116 -4.58853 -10.39481 5.36415 0 0 0
117 -4.87314 -9.45220 5.24980 0 0 0
118 -5.10839 -9.42007 4.27583 0 0 0
119 -4.95025 -8.76511 3.43787 0 0 0
120 -5.86241 -8.84590 3.76152 0 0 0
121 -5.96576 -7.90651 4.07664 0 0 0
122 -5.88051 -17.67873 14.21503 0 0 0
123 -6.86666 -17.74314 14.35764 0 0 0
124 -7.88099 -17.58173 14.31141 0 0 0
125 -8.67144 -18.16702 14.37927 0 0 0
126 -9.17473 -18.95936 14.12281 0 0 0
127 -9.86840 -19.67952 14.35596 0 0 0
128 -10.41937 -20.45537 14.59362 0 0 0
129 -10.97947 -21.00083 15.20121 0 0 0
130 -11.64299 -21.20731 14.60128 0 0 0
131 -12.57214 -21.06090 14.81234 0 0 0
132 -13.48358 -21.31771 15.03249 0 0 0
133 -14.37546 -21.01781 15.31657 0 0 0
134 -15.12389 -21.61284 15.19354 0 0 0
135 -15.97466 -21.25170 15.01807 0 0 0
136 -16.88689 -21.22287 14.73034 0 0 0
137 -17.87775 -21.36723 15.00440 0 0 0
138 -18.35442 -22.10667 15.47923 0 0 0
139 -19.30880 -22.14598 15.48535 0 0 0
140 -19.73173 -22.19296 16.36583 0 0 0
141 -20.03995 -22.99105 16.82653 0 0 0
142 -20.53539 -22.17229 16.98536 0 0 0
143 -20.69688 -21.32683 17.48950 0 0 0
144 -21.60141 -21.09074 17.73886 0 0 0
145 -22.47324 -20.69764 17.33653 0 0 0
146 -23.14788 -20.01699 17.20608 0 0 0
147 -23.98150 -20.01860 17.68280 0 0 0
148 -24.53938 -19.28003 17.28542 0 0 0
149 -24.97374 -19.55010 16.48094 0 0 0
150 -25.40192 -20.17789 17.04909 0 0 0
151 -26.31689 -20.15781 16.72651 0 0 0
152 -26.63483 -20.38413 17.66639 0 0 0
153 -26.66561 -19.74539 18.34131 0 0 0
154 -27.21659 -18.91137 18.12508 0 0 0
155 -27.43328 -18.33596 17.35428 0 0 0
156 -27.74404 -17.89494 16.41815 0 0 0
157 -28.59226 -17.60272 15.87803 0 0 0
158 -28.59822 -16.75115 15.47661 0 0 0
159 -29.05996 -16.11253 14.94963 0 0 0
160 -28.77813 -15.63128 14.17194 0 0 0
161 -27.89725 -15.30913 13.98356 0 0 0
162 -20.60121 -23.19513 17.52936 0 0 0
163 -20.95709 -22.88567 18.39136 0 0 0
164 -20.74776 -23.21534 19.23333 0 0 0
165 -21.58555 -23.24808 19.86653 0 0 0
166 -22.18498 -24.12929 19.66776 0 0 0
167 -22.02024 -25.02095 19.95971 0 0 0
168 -21.77786 -25.56602 20.76246 0 0 0
169 -22.24250 -25.99320 21.55201 0 0 0
170 -22.58094 -26.77841 21.98668 0 0 0
171 -23.45299 -26.54183 22.28523 0 0 0
172 -24.07969 -25.80393 22.41520 0 0 0
173 -23.98213 -25.48540 23.32617 0 0 0
174 -23.81559 -25.77129 24.23794 0 0 0
175 -24.71095 -25.93084 24.62197 0 0 0
176 -25.44997 -26.14231 25.36053 0 0 0
177 -25.71343 -26.30378 26.30295 0 0 0
178 -25.65231 -26.33632 27.26812 0 0 0
179 -24.70765 -25.97881 27.09326 0 0 0
180 -24.33259 -25.68954 27.92580 0 0 0
181 -25.27056 -25.42096 28.09913 0 0 0
182 -20.15548 -23.97945 16.55860 0 0 0
183 -20.43019 -24.18621 15.62459 0 0 0
184 -20.99321 -24.60498 14.97571 0 0 0
185 -20.92771 -25.06909 14.01213 0 0 0
186 -20.30676 -25.82005 14.06969 0 0 0
187 -20.20186 -26.79200 13.90939 0 0 0
188 -20.24349 -27.74019 13.99782 0 0 0
189 -19.48780 -27.60505 13.35352 0 0 0
190 -19.94061 -28.09643 12.68539 0 0 0
191 -20.38605 -28.95229 12.47637 0 0 0
192 -20.51989 -29.55086 11.67719 0 0 0
193 -20.12100 -30.40260 11.89322 0 0 0
194 -20.92700 -30.87473 11.83602 0 0 0
195 -20.30832 -31.63096 12.05443 0 0 0
196 -19.56998 -32.10864 12.36349 0 0 0
197 -20.10956 -32.89705 12.26399 0 0 0
198 -19.73740 -33.21313 11.31577 0 0 0
199 -19.25166 -32.38343 11.26630 0 0 0
200 -19.58053 -31.65586 10.68501 0 0 0
201 -19.18944 -32.49941 10.24962 0 0 0
ITEM: TIMESTEP
3000
ITEM: NUMBER OF ATOMS
201
ITEM: BOX BOUNDS pp pp pp
-1.0000000000000000e+03 1.0000000000000000e+03
-1.0000000000000000e+03 1.0000000000000000e+03
-1.0000000000000000e+03 1.0000000000000000e+03
ITEM: ATOMS id x y z ix iy iz
1 -1.71950 -2.87949 8.35101 0 0 0
2 -0.98888 -2.75683 7.71764 0 0 0
3 -0.17745 -2.22867 7.95805 0 0 0
4 -0.28208 -1.32835 7.60050 0 0 0
5 -0.10913 -1.32259 8.61408 0 0 0
6 0.22541 -1.53435 9.44714 0 0 0
7 0.51117 -1.07653 10.24069 0 0 0
8 0.20718 -1.88047 10.92249 0 0 0
9 0.71161 -2.64873 11.12429 0 0 0
10 1.17985 -1.81337 11.19185 0 0 0
11 1.55323 -1.40535 12.02370 0 0 0
12 1.09965 -1.48293 12.82861 0 0 0
13 0.17066 -1.71745 12.76207 0 0 0
14 0.15275 -2.54185 13.25549 0 0 0
15 0.29220 -2.96034 14.11623 0 0 0
16 0.84280 -2.57101 14.73471 0 0 0
17 0.51666 -1.76540 15.26775 0 0 0
18 0.50399 -1.56110 16.21518 0 0 0
19 1.04483 -1.66294 17.03571 0 0 0
20 0.77039 -1.87718 18.01805 0 0 0
21 0.63029 -2.49161 18.83057 0 0 0
22 -0.12683 -2.03161 19.14884 0 0 0
23 -1.02980 -2.26759 19.10042 0 0 0
24 -1.56483 -1.68258 19.61312 0 0 0
25 -1.00151 -1.18528 20.17876 0 0 0
26 -1.54137 -0.42356 19.58733 0 0 0
27 -1.42728 0.53268 19.40345 0 0 0
28 -2.34008 0.29447 19.33718 0 0 0
29 -3.17143 0.63298 19.50179 0 0 0
30 -3.32679 1.14513 20.31550 0 0 0
31 -3.66720 1.14133 21.21951 0 0 0
32 -4.53801 1.45901 21.04275 0 0 0
33 -5.49151 1.72437 21.01351 0 0 0
34 -6.15144 2.16892 20.36549 0 0 0
35 -5.43911 2.83972 20.11883 0 0 0
36 -5.94807 3.51081 20.55231 0 0 0
37 -6.47792 3.58459 21.41954 0 0 0
38 -6.61953 4.33937 22.00824 0 0 0
39 -6.99936 4.33056 22.89316 0 0 0
40 -7.15329 5.24971 23.22829 0 0 0
41 -7.52535 5.79831 22.51054 0 0 0
42 1.31266 -2.88095 18.29304 0 0 0
43 2.24351 -3.11603 17.99490 0 0 0
44 2.88034 -2.92048 18.66142 0 0 0
45 3.73993 -3.00025 18.14531 0 0 0
46 4.46954 -2.36284 18.44824 0 0 0
47 4.91893 -1.51593 18.51808 0 0 0
48 5.91756 -1.56707 18.56933 0 0 0
49 6.73332 -1.29578 19.00883 0 0 0
50 7.48010 -0.96695 19.45327 0 0 0
51 8.36961 -1.22480 19.52546 0 0 0
52 8.83839 -0.43406 19.82890 0 0 0
53 9.50571 0.20650 20.07605 0 0 0
54 9.08336 1.10769 20.35617 0 0 0
55 10.05357 1.31708 20.45333 0 0 0
56 10.52349 2.25505 20.35450 0 0 0
57 11.27429 1.56363 20.18736 0 0 0
58 10.81419 1.48762 19.23753 0 0 0
59 11.13730 0.64570 19.44590 0 0 0
60 11.26544 0.19708 18.43781 0 0 0
61 10.27284 -0.00176 18.49756 0 0 0
62 0.98652 -3.15277 19.38339 0 0 0
63 0.41323 -3.88619 19.90216 0 0 0
64 -0.01559 -4.80234 19.83883 0 0 0
65 -0.33929 -5.44713 19.13349 0 0 0
66 -0.69507 -6.01480 18.30267 0 0 0
67 -1.06778 -6.64244 17.77111 0 0 0
68 -1.23666 -7.23258 17.03675 0 0 0
69 -1.43347 -8.13643 16.73392 0 0 0
70 -1.67794 -9.00682 16.29417 0 0 0
71 -2.39324 -9.41672 16.75305 0 0 0
72 -2.66810 -10.04059 16.00223 0 0 0
73 -3.09425 -10.87928 16.21227 0 0 0
74 -3.85177 -11.35956 15.71808 0 0 0
75 -3.94810 -11.87917 14.91543 0 0 0
76 -4.70279 -12.26897 14.31464 0 0 0
77 -4.53223 -13.09838 14.65569 0 0 0
78 -5.14790 -13.94461 14.71022 0 0 0
79 -5.19725 -14.89256 14.67288 0 0 0
80 -5.83073 -15.56716 14.39757 0 0 0
81 -5.95764 -16.53626 14.44082 0 0 0
82 -5.71342 -17.51544 14.59865 0 0 0
83 -5.57073 -18.37525 14.26504 0 0 0
84 -4.62289 -18.34482 13.96280 0 0 0
85 -3.99331 -19.15518 14.12462 0 0 0
86 -3.76458 -19.93301 14.63294 0 0 0
87 -3.26579 -20.70802 14.25398 0 0 0
88 -2.42250 -20.63462 14.91919 0 0 0
89 -1.77720 -20.52542 15.68939 0 0 0
90 -1.09998 -21.17630 15.46987 0 0 0
91 -0.27826 -21.63520 15.53106 0 0 0
92 0.64196 -21.32086 15.55072 0 0 0
93 1.46147 -21.75598 15.56376 0 0 0
94 1.59120 -22.42153 16.24899 0 0 0
95 2.47268 -22.84065 16.53741 0 0 0
96 2.84389 -22.81331 17.40260 0 0 0
97 3.50611 -22.45840 16.83522 0 0 0
98 3.81323 -22.59038 15.90503 0 0 0
99 4.20853 -22.92022 15.10534 0 0 0
100 4.33421 -22.81158 14.13807 0 0 0
101 3.77704 -22.03780 13.70500 0 0 0
102 -5.27156 -16.58741 13.77504 0 0 0
103 -5.49142 -16.79330 12.94304 0 0 0
104 -5.45256 -17.12995 12.03272 0 0 0
105 -6.01999 -16.41374 11.66820 0 0 0
106 -5.74387 -16.22290 10.78316 0 0 0
107 -5.61385 -15.43936 10.16984 0 0 0
108 -5.52551 -14.45074 9.97385 0 0 0
109 -5.83151 -14.27457 9.10358 0 0 0
110 -5.81762 -15.10753 8.70147 0 0 0
111 -6.32134 -15.50685 7.97048 0 0 0
112 -5.61509 -15.03675 7.56082 0 0 0
113 -5.47424 -14.58110 6.64156 0 0 0
114 -4.93577 -14.05923 6.05797 0 0 0
115 -5.07315 -14.69950 5.23732 0 0 0
116 -4.51373 -14.14669 4.65518 0 0 0
117 -5.35546 -13.85505 4.29037 0 0 0
118 -5.18366 -12.97538 4.71905 0 0 0
119 -4.58279 -12.34481 4.26379 0 0 0
120 -4.86863 -11.53942 3.74991 0 0 0
121 -4.43713 -11.58984 2.90533 0 0 0
122 -6.86824 -16.49673 14.10304 0 0 0
123 -7.78751 -16.15616 14.06834 0 0 0
124 -8.74007 -16.36367 14.17895 0 0 0
125 -9.64545 -16.57078 14.46171 0 0 0
126 -10.45840 -16.98993 14.68337 0 0 0
127 -11.31833 -17.39320 14.49084 0 0 0
128 -11.77389 -17.72655 13.69858 0 0 0
129 -11.65232 -18.43814 14.41041 0 0 0
130 -12.51949 -18.94048 14.35086 0 0 0
131 -13.25749 -19.51174 14.11700 0 0 0
132 -13.74179 -20.32780 14.36361 0 0 0
133 -14.05687 -21.16239 13.90169 0 0 0
134 -15.01007 -21.37840 14.08393 0 0 0
135 -15.84893 -21.77857 14.24919 0 0 0
136 -16.75547 -21.60551 14.15668 0 0 0
137 -17.49560 -22.30733 14.49021 0 0 0
138 -18.18858 -21.87307 15.03858 0 0 0
139 -18.98162 -21.74001 15.80349 0 0 0
140 -19.53142 -21.95139 16.53378 0 0 0
141 -19.83671 -22.74504 16.94953 0 0 0
142 -20.33337 -21.83198 17.12899 0 0 0
143 -20.06638 -21.30932 17.88448 0 0 0
144 -20.65111 -20.67883 17.45029 0 0 0
145 -21.47475 -20.63909 18.16610 0 0 0
146 -22.07784 -20.28711 17.43411 0 0 0
147 -22.96879 -20.44279 17.76081 0 0 0
148 -23.35572 -19.80036 18.32207 0 0 0
149 -23.95896 -18.98651 18.29891 0 0 0
150 -24.54044 -18.25314 18.55543 0 0 0
151 -25.39151 -18.09902 19.14368 0 0 0
152 -26.20929 -18.13840 18.62769 0 0 0
153 -27.07246 -17.80020 18.26384 0 0 0
154 -26.90978 -17.03998 17.68861 0 0 0
155 -26.81905 -16.01412 17.42418 0 0 0
156 -26.77798 -15.24323 16.85152 0 0 0
157 -27.74189 -15.19561 16.91189 0 0 0
158 -28.44530 -14.80644 17.50676 0 0 0
159 -29.18617 -15.59670 17.68352 0 0 0
160 -29.45364 -16.55707 17.75581 0 0 0
161 -29.90362 -17.48377 17.87419 0 0 0
162 -20.75845 -23.02838 16.91644 0 0 0
163 -21.71573 -23.04772 16.81310 0 0 0
164 -21.70221 -23.97663 16.92120 0 0 0
165 -22.39867 -24.60884 16.98100 0 0 0
166 -23.17089 -24.42120 17.54475 0 0 0
167 -23.82946 -24.77261 18.17471 0 0 0
168 -24.59846 -24.88391 18.82752 0 0 0
169 -24.87247 -24.73471 19.80663 0 0 0
170 -24.80389 -23.84358 20.04657 0 0 0
171 -24.76271 -23.58628 21.00377 0 0 0
172 -23.84490 -23.74132 21.19762 0 0 0
173 -23.02048 -24.17094 21.12087 0 0 0
174 -22.60415 -24.14364 21.99300 0 0 0
175 -21.81157 -23.74538 22.50065 0 0 0
176 -22.36089 -24.27003 23.09396 0 0 0
177 -22.40063 -23.97901 23.96901 0 0 0
178 -22.77817 -23.07954 23.72225 0 0 0
179 -23.34308 -22.65415 23.04249 0 0 0
180 -22.97984 -21.74513 23.25844 0 0 0
181 -23.32716 -21.30302 22.39486 0 0 0