ITEM: TIMESTEP
0
ITEM: NUMBER OF ATOMS
301
ITEM: BOX BOUNDS pp pp pp
-1.0000000000000000e+03 1.0000000000000000e+03
-1.0000000000000000e+03 1.0000000000000000e+03
-1.0000000000000000e+03 1.0000000000000000e+03
ITEM: ATOMS id x y z ix iy iz
1 0.00000 0.00000 0.00000 0 0 0
2 0.00000 0.00000 1.00000 0 0 0
3 0.00000 -0.50000 1.86603 0 0 0
4 0.00000 0.00000 2.73205 0 0 0
5 0.00000 -0.50000 3.59808 0 0 0
6 0.00000 0.00000 4.46410 0 0 0
7 0.00000 -0.50000 5.33013 0 0 0
8 0.00000 0.00000 6.19615 0 0 0
9 0.00000 -0.50000 7.06218 0 0 0
10 0.00000 0.00000 7.92820 0 0 0
11 0.00000 -0.50000 8.79423 0 0 0
12 0.00000 0.00000 9.66025 0 0 0
13 0.00000 -0.50000 10.52628 0 0 0
14 0.00000 0.00000 11.39230 0 0 0
15 0.00000 -0.50000 12.25833 0 0 0
16 0.00000 0.00000 13.12436 0 0 0
17 0.00000 -0.50000 13.99038 0 0 0
18 0.00000 0.00000 14.85641 0 0 0
19 0.00000 -0.50000 15.72243 0 0 0
20 0.00000 0.00000 16.58846 0 0 0
21 0.00000 -0.50000 17.45448 0 0 0
22 0.00000 0.00000 18.32051 0 0 0
23 0.00000 -0.50000 19.18653 0 0 0
24 0.00000 0.00000 20.05256 0 0 0
25 0.00000 -0.50000 20.91858 0 0 0
26 0.00000 0.00000 21.78461 0 0 0
27 0.00000 -0.50000 22.65064 0 0 0
28 0.00000 0.00000 23.51666 0 0 0
29 0.00000 -0.50000 24.38269 0 0 0
30 0.00000 0.00000 25.24871 0 0 0
31 0.00000 -0.50000 26.11474 0 0 0
32 0.00000 0.00000 26.98076 0 0 0
33 0.00000 -0.50000 27.84679 0 0 0
34 0.00000 0.00000 28.71281 0 0 0
35 0.00000 -0.50000 29.57884 0 0 0
36 0.00000 0.00000 30.44486 0 0 0
37 0.00000 -0.50000 31.31089 0 0 0
38 0.00000 0.00000 32.17691 0 0 0
39 0.00000 -0.50000 33.04294 0 0 0
40 0.00000 0.00000 33.90897 0 0 0
41 0.00000 -0.50000 34.77499 0 0 0
42 0.00000 0.00000 35.64102 0 0 0
43 0.00000 -0.50000 36.50704 0 0 0
44 0.00000 0.00000 37.37307 0 0 0
45 0.00000 -0.50000 38.23909 0 0 0
46 0.00000 0.00000 39.10512 0 0 0
47 0.00000 -0.50000 39.97114 0 0 0
48 0.00000 0.00000 40.83717 0 0 0
49 0.00000 -0.50000 41.70319 0 0 0
50 0.00000 0.00000 42.56922 0 0 0
51 0.00000 -0.50000 43.43524 0 0 0
52 0.00000 0.00000 44.30127 0 0 0
53 0.00000 -0.50000 45.16730 0 0 0
54 0.00000 0.00000 46.03332 0 0 0
55 0.00000 -0.50000 46.89935 0 0 0
56 0.00000 0.00000 47.76537 0 0 0
57 0.00000 -0.50000 48.63140 0 0 0
58 0.00000 0.00000 49.49742 0 0 0
59 0.00000 -0.50000 50.36345 0 0 0
60 0.00000 0.00000 51.22947 0 0 0
61 0.00000 -0.50000 52.09550 0 0 0
62 0.00000 0.00000 52.96152 0 0 0
63 0.00000 -0.50000 53.82755 0 0 0
64 0.00000 0.00000 54.69358 0 0 0
65 0.00000 -0.50000 55.55960 0 0 0
66 0.00000 0.00000 56.42563 0 0 0
67 0.00000 -0.50000 57.29165 0 0 0
68 0.00000 0.00000 58.15768 0 0 0
69 0.00000 -0.50000 59.02370 0 0 0
70 0.00000 0.00000 59.88973 0 0 0
71 0.00000 -0.50000 60.75575 0 0 0
72 0.00000 0.00000 61.62178 0 0 0
73 0.00000 -0.50000 62.48780 0 0 0
74 0.00000 0.00000 63.35383 0 0 0
75 0.00000 -0.50000 64.21985 0 0 0
76 0.00000 0.00000 65.08588 0 0 0
77 0.00000 -0.50000 65.95191 0 0 0
78 0.00000 0.00000 66.81793 0 0 0
79 0.00000 -0.50000 67.68396 0 0 0
80 0.00000 0.00000 68.54998 0 0 0
81 0.00000 -0.50000 69.41601 0 0 0
82 0.00000 0.00000 70.28203 0 0 0
83 0.00000 -0.50000 71.14806 0 0 0
84 0.00000 0.00000 72.01408 0 0 0
85 0.00000 -0.50000 72.88011 0 0 0
86 0.00000 0.00000 73.74613 0 0 0
87 0.00000 -0.50000 74.61216 0 0 0
88 0.00000 0.00000 75.47818 0 0 0
89 0.00000 -0.50000 76.34421 0 0 0
90 0.00000 0.00000 77.21024 0 0 0
91 0.00000 -0.50000 78.07626 0 0 0
92 0.00000 0.00000 78.94229 0 0 0
93 0.00000 -0.50000 79.80831 0 0 0
94 0.00000 0.00000 80.67434 0 0 0
95 0.00000 -0.50000 81.54036 0 0 0
96 0.00000 0.00000 82.40639 0 0 0
97 0.00000 -0.50000 83.27241 0 0 0
98 0.00000 0.00000 84.13844 0 0 0
99 0.00000 -0.50000 85.00446 0 0 0
100 0.00000 0.00000 85.87049 0 0 0
101 0.00000 -0.50000 86.73651 0 0 0
102 -0.49722 -0.13593 87.52406 0 0 0
103 -0.99443 -0.21441 88.38813 0 0 0
104 -1.49165 0.49466 88.88813 0 0 0
105 -1.98887 0.41618 89.75220 0 0 0
106 -2.48608 1.12524 90.25220 0 0 0
107 -2.98330 1.04676 91.11627 0 0 0
108 -3.48052 1.75583 91.61627 0 0 0
109 -3.97773 1.67735 92.48034 0 0 0
110 -4.47495 2.38642 92.98034 0 0 0
111 -4.97217 2.30794 93.84441 0 0 0
112 -5.46938 3.01701 94.34441 0 0 0
113 -5.96660 2.93853 95.20848 0 0 0
114 -6.46382 3.64759 95.70848 0 0 0
115 -6.96103 3.56911 96.57255 0 0 0
116 -7.45825 4.27818 97.07255 0 0 0
117 -7.95547 4.19970 97.93662 0 0 0
118 -8.45268 4.90877 98.43662 0 0 0
119 -8.94990 4.83029 99.30069 0 0 0
120 -9.44712 5.53936 99.80069 0 0 0
121 -9.94434 5.46088 100.66476 0 0 0
122 -10.44155 6.16994 101.16476 0 0 0
123 -10.93877 6.09146 102.02883 0 0 0
124 -11.43599 6.80053 102.52883 0 0 0
125 -11.93320 6.72205 103.39290 0 0 0
126 -12.43042 7.43112 103.89290 0 0 0
127 -12.92764 7.35264 104.75697 0 0 0
128 -13.42485 8.06170 105.25697 0 0 0
129 -13.92207 7.98322 106.12104 0 0 0
130 -14.41929 8.69229 106.62104 0 0 0
131 -14.91650 8.61381 107.48511 0 0 0
132 -15.41372 9.32288 107.98511 0 0 0
133 -15.91094 9.24440 108.84918 0 0 0
134 -16.40815 9.95347 109.34918 0 0 0
135 -16.90537 9.87499 110.21325 0 0 0
136 -17.40259 10.58405 110.71325 0 0 0
137 -17.89980 10.50557 111.57732 0 0 0
138 -18.39702 11.21464 112.07732 0 0 0
139 -18.89424 11.13616 112.94139 0 0 0
140 -19.39145 11.84523 113.44139 0 0 0
141 -19.88867 11.76675 114.30546 0 0 0
142 -20.38589 12.47581 114.80546 0 0 0
143 -20.88310 12.39734 115.66953 0 0 0
144 -21.38032 13.10640 116.16953 0 0 0
145 -21.87754 13.02792 117.03359 0 0 0
146 -22.37475 13.73699 117.53359 0 0 0
147 -22.87197 13.65851 118.39766 0 0 0
148 -23.36919 14.36758 118.89766 0 0 0
149 -23.86640 14.28910 119.76173 0 0 0
150 -24.36362 14.99816 120.26173 0 0 0
151 -24.86084 14.91968 121.12580 0 0 0
152 -25.35805 15.62875 121.62580 0 0 0
153 -25.85527 15.55027 122.48987 0 0 0
154 -26.35249 16.25934 122.98987 0 0 0
155 -26.84970 16.18086 123.85394 0 0 0
156 -27.34692 16.88993 124.35394 0 0 0
157 -27.84414 16.81145 125.21801 0 0 0
158 -28.34135 17.52051 125.71801 0 0 0
159 -28.83857 17.44203 126.58208 0 0 0
160 -29.33579 18.15110 127.08208 0 0 0
161 -29.83301 18.07262 127.94615 0 0 0
162 -30.33022 18.78169 128.44615 0 0 0
163 -30.82744 18.70321 129.31022 0 0 0
164 -31.32466 19.41227 129.81022 0 0 0
165 -31.82187 19.33380 130.67429 0 0 0
166 -32.31909 20.04286 131.17429 0 0 0
167 -32.81631 19.96438 132.03836 0 0 0
168 -33.31352 20.67345 132.53836 0 0 0
169 -33.81074 20.59497 133.40243 0 0 0
170 -34.30796 21.30404 133.90243 0 0 0
171 -34.80517 21.22556 134.76650 0 0 0
172 -35.30239 21.93462 135.26650 0 0 0
173 -35.79961 21.85614 136.13057 0 0 0
174 -36.29682 22.56521 136.63057 0 0 0
175 -36.79404 22.48673 137.49464 0 0 0
176 -37.29126 23.19580 137.99464 0 0 0
177 -37.78847 23.11732 138.85871 0 0 0
178 -38.28569 23.82639 139.35871 0 0 0
179 -38.78291 23.74791 140.22278 0 0 0
180 -39.28012 24.45697 140.72278 0 0 0
181 -39.77734 24.37849 141.58685 0 0 0
182 -40.27456 25.08756 142.08685 0 0 0
183 -40.77177 25.00908 142.95092 0 0 0
184 -41.26899 25.71815 143.45092 0 0 0
185 -41.76621 25.63967 144.31499 0 0 0
186 -42.26342 26.34873 144.81499 0 0 0
187 -42.76064 26.27026 145.67906 0 0 0
188 -43.25786 26.97932 146.17906 0 0 0
189 -43.75507 26.90084 147.04313 0 0 0
190 -44.25229 27.60991 147.54313 0 0 0
191 -44.74951 27.53143 148.40720 0 0 0
192 -45.24672 28.24050 148.90720 0 0 0
193 -45.74394 28.16202 149.77127 0 0 0
194 -46.24116 28.87108 150.27127 0 0 0
195 -46.73837 28.79260 151.13534 0 0 0
196 -47.23559 29.50167 151.63534 0 0 0
197 -47.73281 29.42319 152.49941 0 0 0
198 -48.23002 30.13226 152.99941 0 0 0
199 -48.72724 30.05378 153.86348 0 0 0
200 -49.22446 30.76285 154.36348 0 0 0
201 -49.72168 30.68437 155.22755 0 0 0
202 0.49722 -1.36407 86.81499 0 0 0
203 0.99443 -2.15162 86.45092 0 0 0
204 1.49165 -2.86068 86.95092 0 0 0
205 1.98887 -3.64823 86.58685 0 0 0
206 2.48608 -4.35730 87.08685 0 0 0
207 2.98330 -5.14484 86.72279 0 0 0
208 3.48052 -5.85391 87.22279 0 0 0
209 3.97773 -6.64145 86.85872 0 0 0
210 4.47495 -7.35052 87.35872 0 0 0
211 4.97217 -8.13807 86.99465 0 0 0
212 5.46938 -8.84713 87.49465 0 0 0
213 5.96660 -9.63468 87.13058 0 0 0
214 6.46382 -10.34375 87.63058 0 0 0
215 6.96103 -11.13129 87.26651 0 0 0
216 7.45825 -11.84036 87.76651 0 0 0
217 7.95547 -12.62790 87.40244 0 0 0
218 8.45268 -13.33697 87.90244 0 0 0
219 8.94990 -14.12452 87.53837 0 0 0
220 9.44712 -14.83358 88.03837 0 0 0
221 9.94434 -15.62113 87.67430 0 0 0
222 10.44155 -16.33020 88.17430 0 0 0
223 10.93877 -17.11774 87.81023 0 0 0
224 11.43599 -17.82681 88.31023 0 0 0
225 11.93320 -18.61436 87.94616 0 0 0
226 12.43042 -19.32342 88.44616 0 0 0
227 12.92764 -20.11097 88.08209 0 0 0
228 13.42485 -20.82003 88.58209 0 0 0
229 13.92207 -21.60758 88.21802 0 0 0
230 14.41929 -22.31665 88.71802 0 0 0
231 14.91650 -23.10419 88.35395 0 0 0
232 15.41372 -23.81326 88.85395 0 0 0
233 15.91094 -24.60081 88.48988 0 0 0
234 16.40815 -25.30987 88.98988 0 0 0
235 16.90537 -26.09742 88.62581 0 0 0
236 17.40259 -26.80649 89.12581 0 0 0
237 17.89980 -27.59403 88.76174 0 0 0
238 18.39702 -28.30310 89.26174 0 0 0
239 18.89424 -29.09064 88.89767 0 0 0
240 19.39145 -29.79971 89.39767 0 0 0
241 19.88867 -30.58726 89.03360 0 0 0
242 20.38589 -31.29632 89.53360 0 0 0
243 20.88310 -32.08387 89.16953 0 0 0
244 21.38032 -32.79294 89.66953 0 0 0
245 21.87754 -33.58048 89.30546 0 0 0
246 22.37475 -34.28955 89.80546 0 0 0
247 22.87197 -35.07709 89.44139 0 0 0
248 23.36919 -35.78616 89.94139 0 0 0
249 23.86640 -36.57371 89.57732 0 0 0
250 24.36362 -37.28277 90.07732 0 0 0
251 24.86084 -38.07032 89.71325 0 0 0
252 25.35805 -38.77939 90.21325 0 0 0
253 25.85527 -39.56693 89.84918 0 0 0
254 26.35249 -40.27600 90.34918 0 0 0
255 26.84970 -41.06355 89.98511 0 0 0
256 27.34692 -41.77261 90.48511 0 0 0
257 27.84414 -42.56016 90.12104 0 0 0
258 28.34135 -43.26922 90.62104 0 0 0
259 28.83857 -44.05677 90.25697 0 0 0
260 29.33579 -44.76584 90.75697 0 0 0
261 29.83301 -45.55338 90.39290 0 0 0
262 30.33022 -46.26245 90.89290 0 0 0
263 30.82744 -47.05000 90.52883 0 0 0
264 31.32466 -47.75906 91.02883 0 0 0
265 31.82187 -48.54661 90.66476 0 0 0
266 32.31909 -49.25567 91.16476 0 0 0
267 32.81631 -50.04322 90.80069 0 0 0
268 33.31352 -50.75229 91.30069 0 0 0
269 33.81074 -51.53983 90.93662 0 0 0
270 34.30796 -52.24890 91.43662 0 0 0
271 34.80517 -53.03645 91.07255 0 0 0
272 35.30239 -53.74551 91.57255 0 0 0
273 35.79961 -54.53306 91.20848 0 0 0
274 36.29682 -55.24213 91.70848 0 0 0
275 36.79404 -56.02967 91.34441 0 0 0
276 37.29126 -56.73874 91.84441 0 0 0
277 37.78847 -57.52628 91.48034 0 0 0
278 38.28569 -58.23535 91.98034 0 0 0
279 38.78291 -59.02290 91.61628 0 0 0
280 39.28012 -59.73196 92.11628 0 0 0
281 39.77734 -60.51951 91.75221 0 0 0
282 40.27456 -61.22858 92.25221 0 0 0
283 40.77177 -62.01612 91.88814 0 0 0
284 41.26899 -62.72519 92.38814 0 0 0
285 41.76621 -63.51273 92.02407 0 0 0
286 42.26342 -64.22180 92.52407 0 0 0
287 42.76064 -65.00935 92.16000 0 0 0
288 43.25786 -65.71841 92.66000 0 0 0
289 43.75507 -66.50596 92.29593 0 0 0
290 44.25229 -67.21503 92.79593 0 0 0
291 44.74951 -68.00257 92.43186 0 0 0
292 45.24672 -68.71164 92.93186 0 0 0
293 45.74394 -69.49919 92.56779 0 0 0
294 46.24116 -70.20825 93.06779 0 0 0
295 46.73837 -70.99580 92.70372 0 0 0
296 47.23559 -71.70486 93.20372 0 0 0
297 47.73281 -72.49241 92.83965 0 0 0
298 48.23002 -73.20148 93.33965 0 0 0
299 48.72724 -73.98902 92.97558 0 0 0
300 49.22446 -74.69809 93.47558 0 0 0
301 49.72168 -75.48564 93.11151 0 0 0
ITEM: TIMESTEP
1000
ITEM: NUMBER OF ATOMS
301
ITEM: BOX BOUNDS pp pp pp
-1.0000000000000000e+03 1.0000000000000000e+03
-1.0000000000000000e+03 1.0000000000000000e+03
-1.0000000000000000e+03 1.0000000000000000e+03
ITEM: ATOMS id x y z ix iy iz
1 1.03050 -0.10018 5.13782 0 0 0
2 1.15785 0.65674 5.72560 0 0 0
3 0.92425 1.16279 6.55411 0 0 0
4 0.05811 0.76809 6.61818 0 0 0
5 -0.77782 0.32937 6.87426 0 0 0
6 -0.77444 -0.26066 7.61228 0 0 0
7 -0.71381 -0.21834 8.55915 0 0 0
8 0.23016 -0.07770 8.79302 0 0 0
9 1.20053 -0.40852 8.91849 0 0 0
10 0.90072 -1.33556 9.35092 0 0 0
11 0.25030 -1.72871 9.98054 0 0 0
12 -0.40038 -1.58859 10.65233 0 0 0
13 -0.53301 -1.43131 11.67186 0 0 0
14 -0.67737 -1.11677 12.59416 0 0 0
15 -1.03267 -0.73806 13.44085 0 0 0
16 -1.26284 -1.07368 14.38977 0 0 0
17 -1.08536 -0.77744 15.30055 0 0 0
18 -0.76436 -1.32995 16.04263 0 0 0
19 -0.73990 -1.59111 17.04212 0 0 0
20 -0.22306 -1.32098 17.96175 0 0 0
21 -0.08297 -1.39485 18.92624 0 0 0
22 -0.34994 -0.75862 19.63766 0 0 0
23 0.07699 -1.11256 20.58731 0 0 0
24 -0.18483 -1.55622 21.43176 0 0 0
25 -0.01068 -1.48559 22.37093 0 0 0
26 -0.28741 -0.93031 23.15591 0 0 0
27 -0.70466 -0.32601 23.81530 0 0 0
28 -1.48232 -0.27323 24.49168 0 0 0
29 -1.24246 0.55089 25.00623 0 0 0
30 -1.75981 0.88386 25.72867 0 0 0
31 -2.13866 0.84668 26.65105 0 0 0
32 -1.72905 0.85322 27.58191 0 0 0
33 -1.83288 0.76575 28.58691 0 0 0
34 -1.81648 0.68187 29.49908 0 0 0
35 -1.56192 0.15233 30.25131 0 0 0
36 -1.87293 -0.44473 31.04773 0 0 0
37 -2.15199 -0.99695 31.81647 0 0 0
38 -2.20478 -0.99864 32.76592 0 0 0
39 -2.41883 -1.25856 33.66341 0 0 0
40 -2.68104 -1.23277 34.58846 0 0 0
41 -2.32182 -1.42518 35.49528 0 0 0
42 -1.94259 -1.73907 36.29624 0 0 0
43 -1.47612 -1.66469 37.25767 0 0 0
44 -0.97434 -1.71245 38.10072 0 0 0
45 -1.12128 -2.06402 38.95463 0 0 0
46 -0.81737 -2.41925 39.83070 0 0 0
47 -1.00063 -2.37875 40.81200 0 0 0
48 -1.41370 -2.07954 41.60546 0 0 0
49 -1.45885 -2.50140 42.47588 0 0 0
50 -0.80905 -2.26774 43.10502 0 0 0
51 -0.61298 -2.17780 44.16179 0 0 0
52 -0.33476 -1.62432 44.94764 0 0 0
53 -0.39494 -1.03441 45.73714 0 0 0
54 -0.44765 -0.42565 46.50458 0 0 0
55 -0.11582 0.15646 47.24791 0 0 0
56 0.18517 0.61400 48.05324 0 0 0
57 0.36315 1.12198 48.91485 0 0 0
58 0.83963 0.80879 49.67842 0 0 0
59 0.75186 1.11694 50.59275 0 0 0
60 0.14757 1.16671 51.42922 0 0 0
61 -0.22359 1.31727 52.37249 0 0 0
62 -0.81319 0.62465 52.57704 0 0 0
63 -0.74780 0.09946 53.45292 0 0 0
64 -0.55001 0.07882 54.42753 0 0 0
65 -0.64169 -0.33025 55.31950 0 0 0
66 -0.82708 -0.17029 56.26370 0 0 0
67 -0.60793 0.28205 57.11291 0 0 0
68 -0.15073 0.52880 57.98951 0 0 0
69 0.11748 0.08183 58.94187 0 0 0
70 -0.19521 -0.15742 59.84302 0 0 0
71 -0.37279 -0.03259 60.90266 0 0 0
72 -0.19727 -0.60193 61.75340 0 0 0
73 -0.17803 -0.38861 62.73264 0 0 0
74 -0.00131 -0.94969 63.58074 0 0 0
75 -0.33808 -1.05807 64.51193 0 0 0
76 -0.36127 -1.18460 65.42614 0 0 0
77 -0.33551 -0.96765 66.43964 0 0 0
78 -1.05798 -0.83233 67.11171 0 0 0
79 -1.49243 -0.58005 68.01868 0 0 0
80 -1.47857 -0.86373 69.00106 0 0 0
81 -1.11191 -0.58813 69.83522 0 0 0
82 -1.13880 -0.30177 70.73854 0 0 0
83 -1.41582 -0.43937 71.69919 0 0 0
84 -1.52538 -0.79190 72.63536 0 0 0
85 -0.76750 -0.37064 73.07821 0 0 0
86 -0.57675 -1.14650 73.62023 0 0 0
87 -0.94349 -1.42588 74.48994 0 0 0
88 -1.13869 -1.28186 75.43564 0 0 0
89 -1.10006 -1.75559 76.27507 0 0 0
90 -0.50569 -1.98786 77.09736 0 0 0
91 -0.54081 -1.96550 78.04747 0 0 0
92 -0.21870 -2.14068 78.92837 0 0 0
93 -0.67139 -2.39094 79.83344 0 0 0
94 -0.89468 -2.28465 80.82829 0 0 0
95 -0.75035 -2.58445 81.86901 0 0 0
96 -0.16698 -2.69276 82.73062 0 0 0
97 -0.01850 -2.84332 83.69329 0 0 0
98 -0.14590 -2.70989 84.62019 0 0 0
99 -0.22459 -2.32574 85.70275 0 0 0
100 -0.18300 -2.04817 86.65672 0 0 0
101 0.06200 -1.53562 87.48121 0 0 0
102 -0.76249 -1.32456 87.97503 0 0 0
103 -1.22368 -0.75190 88.62539 0 0 0
104 -1.64205 -0.31092 89.48625 0 0 0
105 -2.26983 0.43093 89.99957 0 0 0
106 -2.49267 0.81440 90.85538 0 0 0
107 -2.95397 1.35906 91.63816 0 0 0
108 -3.51792 1.60469 92.44483 0 0 0
109 -4.30179 1.63149 93.08236 0 0 0
110 -4.54131 2.35325 93.65978 0 0 0
111 -5.43706 2.56689 94.26492 0 0 0
112 -5.46376 2.46122 95.25545 0 0 0
113 -5.94811 3.08273 95.83967 0 0 0
114 -6.66941 3.25341 96.47103 0 0 0
115 -7.17212 3.49326 97.26533 0 0 0
116 -7.61713 3.90816 98.03735 0 0 0
117 -8.01872 4.53887 98.68723 0 0 0
118 -8.05385 4.91785 99.67043 0 0 0
119 -8.33632 5.26116 100.60814 0 0 0
120 -9.11140 5.31478 101.17565 0 0 0
121 -10.05553 5.32399 101.45079 0 0 0
122 -10.96539 5.65753 101.67034 0 0 0
123 -12.00951 5.54677 101.85408 0 0 0
124 -12.60215 5.61139 102.60883 0 0 0
125 -13.02347 5.97104 103.37570 0 0 0
126 -13.64813 6.34114 104.00641 0 0 0
127 -14.18226 6.82883 104.71600 0 0 0
128 -14.95038 7.11078 105.24886 0 0 0
129 -15.69899 7.56717 105.72460 0 0 0
130 -15.59212 7.88381 106.62663 0 0 0
131 -16.26710 7.97202 107.28667 0 0 0
132 -16.54572 8.69655 108.03964 0 0 0
133 -16.84960 9.33029 108.68855 0 0 0
134 -16.97137 9.87160 109.58659 0 0 0
135 -17.28542 10.53140 110.16662 0 0 0
136 -18.12102 10.33543 110.61292 0 0 0
137 -18.48981 11.15279 110.97069 0 0 0
138 -18.92316 11.25751 111.89645 0 0 0
139 -19.54103 11.85245 112.26950 0 0 0
140 -19.93781 12.24861 113.03620 0 0 0
141 -20.44632 12.65878 113.79584 0 0 0
142 -21.29564 12.89546 114.46785 0 0 0
143 -21.27459 13.31182 115.35777 0 0 0
144 -21.49511 13.88946 116.13183 0 0 0
145 -22.08451 13.84618 116.86046 0 0 0
146 -22.84955 14.09730 117.37075 0 0 0
147 -23.43694 14.39805 118.15485 0 0 0
148 -23.38433 15.21727 118.63738 0 0 0
149 -23.07222 15.65836 119.44925 0 0 0
150 -23.59356 15.86794 120.21753 0 0 0
151 -24.07588 16.39227 121.01464 0 0 0
152 -24.32353 17.04374 121.62091 0 0 0
153 -25.07277 17.32382 122.23769 0 0 0
154 -25.56282 17.89762 122.90928 0 0 0
155 -25.99728 18.04481 123.87895 0 0 0
156 -26.79360 18.32354 124.35979 0 0 0
157 -27.27316 18.54487 125.17558 0 0 0
158 -27.77257 19.14862 125.87204 0 0 0
159 -28.80220 18.95973 125.74967 0 0 0
160 -29.58324 18.74344 126.27928 0 0 0
161 -29.70434 19.43493 127.05348 0 0 0
162 -29.82199 19.77598 127.98302 0 0 0
163 -30.01175 19.45742 128.86905 0 0 0
164 -30.31814 20.26408 129.45285 0 0 0
165 -31.02550 20.74107 129.97157 0 0 0
166 -31.70431 21.03096 130.59227 0 0 0
167 -32.27463 21.76238 131.01093 0 0 0
168 -32.68779 21.59380 131.93561 0 0 0
169 -33.19107 21.99464 132.62944 0 0 0
170 -33.81317 22.00390 133.42911 0 0 0
171 -34.19197 22.22159 134.31167 0 0 0
172 -34.06104 22.61606 135.20644 0 0 0
173 -34.71799 22.72734 136.04485 0 0 0
174 -35.65580 23.04936 136.18836 0 0 0
175 -36.59823 23.27000 136.03455 0 0 0
176 -37.22545 23.46122 136.70616 0 0 0
177 -37.52267 24.13454 137.33406 0 0 0
178 -37.39366 24.79943 138.04587 0 0 0
179 -38.21071 25.16213 138.47784 0 0 0
180 -38.59532 25.02803 139.41408 0 0 0
181 -38.92947 25.48693 140.29915 0 0 0
182 -39.58907 25.81014 141.03846 0 0 0
183 -39.44363 26.70692 141.36933 0 0 0
184 -40.24798 26.77396 141.90872 0 0 0
185 -40.72418 27.55227 142.16727 0 0 0
186 -41.29886 28.00834 142.83654 0 0 0
187 -41.59954 27.47510 143.59312 0 0 0
188 -41.78314 27.74148 144.54984 0 0 0
189 -41.95486 28.31135 145.23675 0 0 0
190 -42.81474 27.90425 145.62853 0 0 0
191 -43.03879 27.92302 146.57968 0 0 0
192 -43.52870 28.56709 147.15862 0 0 0
193 -43.47945 28.99749 147.98834 0 0 0
194 -44.10281 28.96760 148.76587 0 0 0
195 -44.49050 29.59211 149.35331 0 0 0
196 -45.18431 30.13919 149.05266 0 0 0
197 -45.98246 30.16024 149.65728 0 0 0
198 -46.68607 29.56889 150.02259 0 0 0
199 -47.48632 29.36951 150.53405 0 0 0
200 -47.68203 28.34056 150.71849 0 0 0
201 -48.04531 27.66803 151.44386 0 0 0
202 0.94007 -1.67236 87.83553 0 0 0
203 1.82970 -2.02321 88.16950 0 0 0
204 2.64916 -2.59328 88.20000 0 0 0
205 2.82972 -3.40995 87.73970 0 0 0
206 3.19690 -4.13750 88.23933 0 0 0
207 3.86906 -4.76416 87.93932 0 0 0
208 4.34783 -5.43965 87.38279 0 0 0
209 4.87240 -6.28674 87.18902 0 0 0
210 5.39838 -6.97352 87.62125 0 0 0
211 5.94376 -7.81610 87.31247 0 0 0
212 6.38087 -8.69215 87.15164 0 0 0
213 6.36014 -9.65628 87.18148 0 0 0
214 6.68417 -10.52975 87.51900 0 0 0
215 7.26112 -11.29346 87.23776 0 0 0
216 7.95602 -12.06075 87.52280 0 0 0
217 8.11547 -13.03385 87.56130 0 0 0
218 8.94641 -13.60732 87.63329 0 0 0
219 9.57011 -14.41784 87.61922 0 0 0
220 10.26839 -14.95139 88.10785 0 0 0
221 10.63497 -15.86043 87.88827 0 0 0
222 11.16679 -16.65038 87.62222 0 0 0
223 11.84860 -17.41782 87.80999 0 0 0
224 11.83137 -18.37412 87.89053 0 0 0
225 12.05095 -19.28893 88.24764 0 0 0
226 12.63623 -20.13476 88.13247 0 0 0
227 12.82922 -21.09550 88.13667 0 0 0
228 13.53876 -21.75272 87.98608 0 0 0
229 13.48251 -22.21536 87.11231 0 0 0
230 13.36911 -23.18987 87.22125 0 0 0
231 14.04062 -23.90053 87.36842 0 0 0
232 14.53365 -24.77483 87.16106 0 0 0
233 15.21085 -25.42358 87.11605 0 0 0
234 15.36366 -25.89336 88.07036 0 0 0
235 16.21149 -26.32626 88.55865 0 0 0
236 17.00425 -26.77034 88.96484 0 0 0
237 17.71828 -27.41328 89.12834 0 0 0
238 18.45590 -28.09028 89.13983 0 0 0
239 18.86377 -28.90287 88.82502 0 0 0
240 19.26600 -29.82287 88.82710 0 0 0
241 19.51368 -30.78252 88.95578 0 0 0
242 20.03510 -31.50180 89.31357 0 0 0
243 20.25790 -32.23464 88.77011 0 0 0
244 20.70572 -33.21005 88.72464 0 0 0
245 21.32819 -33.68614 89.24559 0 0 0
246 21.69776 -34.55669 89.04773 0 0 0
247 22.40013 -35.28702 88.95821 0 0 0
248 22.75553 -36.09523 89.25336 0 0 0
249 22.66523 -37.03704 89.36369 0 0 0
250 23.19627 -37.97863 89.74146 0 0 0
251 23.73343 -38.78853 89.83773 0 0 0
252 24.66981 -39.08731 89.60863 0 0 0
253 25.29179 -39.92112 89.28958 0 0 0
254 25.55941 -40.82638 88.97847 0 0 0
255 26.18005 -41.61982 89.25902 0 0 0
256 27.09521 -41.89450 89.42231 0 0 0
257 27.55983 -42.83502 89.48154 0 0 0
258 28.28500 -43.24518 90.02741 0 0 0
259 28.85809 -44.09159 90.14161 0 0 0
260 29.55360 -44.80198 90.05483 0 0 0
261 30.33513 -45.28467 89.61315 0 0 0
262 30.99582 -46.04284 89.72284 0 0 0
263 31.68919 -46.71763 89.62589 0 0 0
264 32.33205 -46.96289 88.98618 0 0 0
265 33.09658 -47.42066 89.42795 0 0 0
266 33.99667 -47.99649 89.35006 0 0 0
267 34.85408 -48.35368 89.65613 0 0 0
268 34.86040 -49.18727 90.10570 0 0 0
269 35.47455 -49.93443 90.38661 0 0 0
270 35.53061 -50.89076 90.20954 0 0 0
271 35.56744 -51.75995 90.77850 0 0 0
272 35.83425 -52.72038 90.74492 0 0 0
273 35.70950 -53.63503 90.59204 0 0 0
274 36.23149 -54.28264 91.01300 0 0 0
275 36.38747 -55.20181 91.33720 0 0 0
276 37.01797 -55.96838 91.28946 0 0 0
277 37.26310 -56.88811 91.20163 0 0 0
278 37.39709 -57.69058 90.72274 0 0 0
279 37.77026 -57.95242 91.60916 0 0 0
280 38.49889 -58.55232 91.86189 0 0 0
281 38.68787 -59.36193 91.21817 0 0 0
282 39.18404 -60.23630 91.44044 0 0 0
283 39.14674 -60.94394 92.08877 0 0 0
284 40.11319 -61.36669 92.18283 0 0 0
285 40.86190 -62.01234 92.15549 0 0 0
286 41.87946 -62.10164 92.34741 0 0 0
287 41.65692 -63.03529 92.71898 0 0 0
288 42.32254 -63.71866 92.51896 0 0 0
289 42.50966 -64.58576 92.08318 0 0 0
290 41.97539 -65.41757 92.40935 0 0 0
291 42.21542 -66.26489 92.70121 0 0 0
292 42.44238 -67.07033 93.10756 0 0 0
293 42.97635 -67.94765 93.42799 0 0 0
294 43.96994 -68.12208 93.40736 0 0 0
295 44.53468 -68.94728 93.53246 0 0 0
296 44.86825 -69.76278 93.23014 0 0 0
297 44.34768 -70.53464 93.48778 0 0 0
298 44.92403 -71.27399 93.20943 0 0 0
299 44.90138 -70.70718 92.48984 0 0 0
300 45.82816 -70.56141 92.03493 0 0 0
301 46.52329 -71.01952 91.49208 0 0 0
ITEM: TIMESTEP
2000
ITEM: NUMBER OF ATOMS
301
ITEM: BOX BOUNDS pp pp pp
-1.0000000000000000e+03 1.0000000000000000e+03
-1.0000000000000000e+03 1.0000000000000000e+03
-1.0000000000000000e+03 1.0000000000000000e+03
ITEM: ATOMS id x y z ix iy iz
1 -1.51068 1.82174 6.10203 0 0 0
2 -0.77916 2.50485 6.24252 0 0 0
3 -0.11677 2.40796 6.97135 0 0 0
4 0.66659 2.07547 7.38527 0 0 0
5 0.63912 1.90501 8.31876 0 0 0
6 1.18403 1.98887 9.12748 0 0 0
7 1.10630 1.80490 10.10830 0 0 0
8 0.97894 1.02087 10.77820 0 0 0
9 0.84047 0.62362 11.69478 0 0 0
10 1.48776 0.17364 12.27705 0 0 0
11 0.95030 0.32907 13.05444 0 0 0
12 0.28070 0.38236 13.70617 0 0 0
13 0.00227 -0.24308 14.34377 0 0 0
14 0.00932 -0.97422 14.97794 0 0 0
15 0.23429 -0.25544 15.62922 0 0 0
16 0.22402 -0.26598 16.67639 0 0 0
17 0.47185 -0.32624 17.61820 0 0 0
18 1.29344 -0.59264 18.09599 0 0 0
19 1.45556 0.13371 18.77140 0 0 0
20 1.18114 -0.34083 19.62522 0 0 0
21 0.22689 -0.60522 19.94218 0 0 0
22 0.05685 -1.32284 20.69481 0 0 0
23 -0.47899 -1.47829 21.52455 0 0 0
24 -0.08639 -1.92268 22.28175 0 0 0
25 0.03288 -2.12989 23.24295 0 0 0
26 -0.52974 -2.44525 23.93414 0 0 0
27 -0.79966 -2.44059 24.91446 0 0 0
28 -1.47559 -2.38547 25.62084 0 0 0
29 -1.55683 -2.55766 26.52593 0 0 0
30 -1.88041 -2.75721 27.36563 0 0 0
31 -1.97018 -2.85578 28.32472 0 0 0
32 -2.08904 -2.24491 29.08087 0 0 0
33 -2.34017 -2.16520 29.97689 0 0 0
34 -2.63064 -1.72498 30.80551 0 0 0
35 -2.10075 -1.46621 31.57507 0 0 0
36 -1.84394 -1.87530 32.39942 0 0 0
37 -2.16180 -2.23123 33.27533 0 0 0
38 -2.44613 -2.26968 34.17508 0 0 0
39 -2.49375 -1.65874 34.92683 0 0 0
40 -2.75548 -1.25778 35.73837 0 0 0
41 -2.55157 -1.06467 36.70999 0 0 0
42 -2.60851 -0.68540 37.64419 0 0 0
43 -2.06838 0.15959 37.68321 0 0 0
44 -1.30687 0.79525 37.86001 0 0 0
45 -1.38802 0.49738 38.84010 0 0 0
46 -1.74934 0.70410 39.70386 0 0 0
47 -1.81600 1.14574 40.57278 0 0 0
48 -1.68032 1.15570 41.54899 0 0 0
49 -1.58236 1.06940 42.54025 0 0 0
50 -1.52254 1.47657 43.54031 0 0 0
51 -1.59732 1.20439 44.48932 0 0 0
52 -1.51539 1.12446 45.42141 0 0 0
53 -1.57854 0.96246 46.38255 0 0 0
54 -1.83494 0.61186 47.24309 0 0 0
55 -1.60142 0.06638 48.09351 0 0 0
56 -1.71789 -0.33410 48.91388 0 0 0
57 -1.64705 -0.20990 49.83906 0 0 0
58 -2.16195 -0.45125 50.58177 0 0 0
59 -2.32278 -0.05497 51.44822 0 0 0
60 -2.27209 -0.08659 52.37180 0 0 0
61 -1.80338 -0.02135 53.21176 0 0 0
62 -1.42821 0.03574 54.12631 0 0 0
63 -1.45954 0.15369 55.11214 0 0 0
64 -1.18299 -0.37132 55.89266 0 0 0
65 -1.22676 -0.68062 56.82857 0 0 0
66 -1.12565 -0.48412 57.71711 0 0 0
67 -0.76023 -0.60876 58.62998 0 0 0
68 -1.06714 -0.35004 59.53335 0 0 0
69 -1.35790 -0.79514 60.33958 0 0 0
70 -1.31694 -0.59301 61.31487 0 0 0
71 -1.03235 -0.93089 62.22015 0 0 0
72 -1.31519 -0.97564 63.21471 0 0 0
73 -1.04320 -0.55912 64.06974 0 0 0
74 -0.74075 -1.29587 64.59585 0 0 0
75 -0.81879 -0.89352 65.54546 0 0 0
76 -1.20334 -0.34678 66.30238 0 0 0
77 -0.91191 -0.70968 67.16496 0 0 0
78 -0.80892 -0.94051 68.11740 0 0 0
79 -0.91594 -1.53341 68.84005 0 0 0
80 -0.44455 -1.45275 69.75805 0 0 0
81 -0.27880 -2.08115 70.48227 0 0 0
82 0.04809 -2.38994 71.28994 0 0 0
83 0.21454 -1.86750 72.25321 0 0 0
84 -0.03916 -1.73660 73.17904 0 0 0
85 0.60825 -2.19876 73.79609 0 0 0
86 0.46216 -2.82597 74.59554 0 0 0
87 0.08114 -2.81292 75.47254 0 0 0
88 0.10296 -2.25790 76.37712 0 0 0
89 -0.45152 -2.17384 77.16868 0 0 0
90 -0.45148 -2.52071 78.13080 0 0 0
91 0.33739 -2.37239 78.71110 0 0 0
92 0.78793 -2.71819 79.59967 0 0 0
93 1.01473 -2.32114 80.44504 0 0 0
94 0.99354 -1.89172 81.36701 0 0 0
95 0.82828 -2.09516 82.40084 0 0 0
96 0.55338 -1.94636 83.32341 0 0 0
97 0.72992 -1.93637 84.27803 0 0 0
98 0.46611 -1.99824 85.24032 0 0 0
99 0.50683 -2.43063 86.10437 0 0 0
100 0.66492 -2.51296 87.06697 0 0 0
101 0.44433 -2.53869 88.04501 0 0 0
102 0.01419 -2.27611 88.97855 0 0 0
103 -0.26881 -1.93007 89.87062 0 0 0
104 -0.77187 -1.15168 90.25170 0 0 0
105 -1.03884 -0.18784 90.56310 0 0 0
106 -1.62357 0.12578 91.28054 0 0 0
107 -2.14048 0.41962 92.17968 0 0 0
108 -2.60567 0.34004 93.11262 0 0 0
109 -3.37322 0.74136 93.52429 0 0 0
110 -3.93035 1.15929 94.23052 0 0 0
111 -4.07553 1.81417 94.90869 0 0 0
112 -4.39856 2.65031 95.36870 0 0 0
113 -4.91015 3.05417 96.11160 0 0 0
114 -5.00354 3.73874 96.85395 0 0 0
115 -5.73588 3.93763 97.59287 0 0 0
116 -6.24354 4.69348 98.14370 0 0 0
117 -7.02732 4.97106 98.64698 0 0 0
118 -7.37610 5.26440 99.51357 0 0 0
119 -8.10121 5.82597 99.96571 0 0 0
120 -8.75715 6.40397 100.45740 0 0 0
121 -9.20776 6.99651 101.12806 0 0 0
122 -9.83278 7.31095 101.80038 0 0 0
123 -10.41760 7.80005 102.35800 0 0 0
124 -11.35928 7.81018 102.50340 0 0 0
125 -11.87757 7.85574 103.38964 0 0 0
126 -12.61856 7.95238 104.10198 0 0 0
127 -13.14341 8.27224 104.93366 0 0 0
128 -13.75868 8.91682 105.32765 0 0 0
129 -14.51489 9.45273 105.60592 0 0 0
130 -14.96219 9.48267 106.47552 0 0 0
131 -15.05653 9.91281 107.39944 0 0 0
132 -15.90491 10.35725 107.74511 0 0 0
133 -16.59844 10.82986 108.29445 0 0 0
134 -17.41577 10.86364 108.88534 0 0 0
135 -17.95158 10.65951 109.68961 0 0 0
136 -18.72605 10.71961 110.30971 0 0 0
137 -19.18826 10.46627 111.15382 0 0 0
138 -19.71741 10.67107 112.00567 0 0 0
139 -20.19234 11.46601 112.44891 0 0 0
140 -20.35645 11.50046 113.39632 0 0 0
141 -20.78486 11.61049 114.25693 0 0 0
142 -21.59762 12.01089 114.54881 0 0 0
143 -21.66074 12.04109 115.53517 0 0 0
144 -22.58363 11.80456 115.79222 0 0 0
145 -22.49077 12.60089 116.44368 0 0 0
146 -23.00832 13.41741 116.66162 0 0 0
147 -23.51484 13.96877 117.32926 0 0 0
148 -23.91044 14.36739 118.27307 0 0 0
149 -24.64322 14.60750 118.98987 0 0 0
150 -24.74008 15.53461 119.28873 0 0 0
151 -25.31464 15.81367 120.07741 0 0 0
152 -25.79181 16.25797 120.88236 0 0 0
153 -26.37050 16.41691 121.65678 0 0 0
154 -27.29739 16.45903 122.04027 0 0 0
155 -27.43010 17.34158 122.40258 0 0 0
156 -27.47867 17.89478 123.20707 0 0 0
157 -28.33762 18.12657 123.58044 0 0 0
158 -29.18132 18.50821 124.07017 0 0 0
159 -29.18536 18.42096 125.06886 0 0 0
160 -29.67827 18.69205 125.92123 0 0 0
161 -29.37854 19.02401 126.81999 0 0 0
162 -28.71927 19.42640 127.47459 0 0 0
163 -29.13737 19.53346 128.33367 0 0 0
164 -29.79211 19.93419 128.89808 0 0 0
165 -30.35229 20.54546 129.38272 0 0 0
166 -30.71535 21.38411 129.93076 0 0 0
167 -30.77593 21.57704 130.87308 0 0 0
168 -31.24681 21.97972 131.65645 0 0 0
169 -31.41847 22.88065 132.04093 0 0 0
170 -32.06290 22.75773 132.71510 0 0 0
171 -32.61581 22.39826 133.35171 0 0 0
172 -32.83486 22.22873 134.27780 0 0 0
173 -33.48607 22.56698 134.89385 0 0 0
174 -33.63059 23.16684 135.62318 0 0 0
175 -34.08887 23.87313 136.10381 0 0 0
176 -34.88430 23.96498 136.61872 0 0 0
177 -35.56953 23.28750 136.73410 0 0 0
178 -36.31107 23.60832 137.31897 0 0 0
179 -35.99746 24.52137 137.08761 0 0 0
180 -35.88260 25.21044 137.76000 0 0 0
181 -35.95812 25.88478 138.51881 0 0 0
182 -36.40909 25.85768 139.40683 0 0 0
183 -36.86257 25.96540 140.29457 0 0 0
184 -36.93845 25.82712 141.26558 0 0 0
185 -37.53708 25.81051 142.10729 0 0 0
186 -37.84148 25.48192 142.99158 0 0 0
187 -38.12914 26.30350 143.40135 0 0 0
188 -38.96141 26.71965 143.71924 0 0 0
189 -39.45441 26.50655 144.49026 0 0 0
190 -39.31621 26.55572 145.44336 0 0 0
191 -39.24887 27.51257 145.00799 0 0 0