ITEM: TIMESTEP
0
ITEM: NUMBER OF ATOMS
400
ITEM: BOX BOUNDS pp pp pp
-1.0000000000000000e+03 1.0000000000000000e+03
-1.0000000000000000e+03 1.0000000000000000e+03
-1.0000000000000000e+03 1.0000000000000000e+03
ITEM: ATOMS id x y z ix iy iz
1 0.00000 0.00000 0.00000 0 0 0
2 0.00000 0.00000 1.00000 0 0 0
3 0.00000 -0.50000 1.86603 0 0 0
4 0.00000 0.00000 2.73205 0 0 0
5 0.00000 -0.50000 3.59808 0 0 0
6 0.00000 0.00000 4.46410 0 0 0
7 0.00000 -0.50000 5.33013 0 0 0
8 0.00000 0.00000 6.19615 0 0 0
9 0.00000 -0.50000 7.06218 0 0 0
10 0.00000 0.00000 7.92820 0 0 0
11 0.00000 -0.50000 8.79423 0 0 0
12 0.00000 0.00000 9.66025 0 0 0
13 0.00000 -0.50000 10.52628 0 0 0
14 0.00000 0.00000 11.39230 0 0 0
15 0.00000 -0.50000 12.25833 0 0 0
16 0.00000 0.00000 13.12436 0 0 0
17 0.00000 -0.50000 13.99038 0 0 0
18 0.00000 0.00000 14.85641 0 0 0
19 0.00000 -0.50000 15.72243 0 0 0
20 0.00000 0.00000 16.58846 0 0 0
21 0.00000 -0.50000 17.45448 0 0 0
22 0.00000 0.00000 18.32051 0 0 0
23 0.00000 -0.50000 19.18653 0 0 0
24 0.00000 0.00000 20.05256 0 0 0
25 0.00000 -0.50000 20.91858 0 0 0
26 0.00000 0.00000 21.78461 0 0 0
27 0.00000 -0.50000 22.65064 0 0 0
28 0.00000 0.00000 23.51666 0 0 0
29 0.00000 -0.50000 24.38269 0 0 0
30 0.00000 0.00000 25.24871 0 0 0
31 0.00000 -0.50000 26.11474 0 0 0
32 0.00000 0.00000 26.98076 0 0 0
33 0.00000 -0.50000 27.84679 0 0 0
34 0.00000 0.00000 28.71281 0 0 0
35 0.00000 -0.50000 29.57884 0 0 0
36 0.00000 0.00000 30.44486 0 0 0
37 0.00000 -0.50000 31.31089 0 0 0
38 0.00000 0.00000 32.17691 0 0 0
39 0.00000 -0.50000 33.04294 0 0 0
40 0.00000 0.00000 33.90897 0 0 0
41 0.00000 -0.50000 34.77499 0 0 0
42 0.00000 0.00000 35.64102 0 0 0
43 0.00000 -0.50000 36.50704 0 0 0
44 0.00000 0.00000 37.37307 0 0 0
45 0.00000 -0.50000 38.23909 0 0 0
46 0.00000 0.00000 39.10512 0 0 0
47 0.00000 -0.50000 39.97114 0 0 0
48 0.00000 0.00000 40.83717 0 0 0
49 0.00000 -0.50000 41.70319 0 0 0
50 0.00000 0.00000 42.56922 0 0 0
51 0.00000 -0.50000 43.43524 0 0 0
52 0.00000 0.00000 44.30127 0 0 0
53 0.00000 -0.50000 45.16730 0 0 0
54 0.00000 0.00000 46.03332 0 0 0
55 0.00000 -0.50000 46.89935 0 0 0
56 0.00000 0.00000 47.76537 0 0 0
57 0.00000 -0.50000 48.63140 0 0 0
58 0.00000 0.00000 49.49742 0 0 0
59 0.00000 -0.50000 50.36345 0 0 0
60 0.00000 0.00000 51.22947 0 0 0
61 0.00000 -0.50000 52.09550 0 0 0
62 0.00000 0.00000 52.96152 0 0 0
63 0.00000 -0.50000 53.82755 0 0 0
64 0.00000 0.00000 54.69358 0 0 0
65 0.00000 -0.50000 55.55960 0 0 0
66 0.00000 0.00000 56.42563 0 0 0
67 0.00000 -0.50000 57.29165 0 0 0
68 0.00000 0.00000 58.15768 0 0 0
69 0.00000 -0.50000 59.02370 0 0 0
70 0.00000 0.00000 59.88973 0 0 0
71 0.00000 -0.50000 60.75575 0 0 0
72 0.00000 0.00000 61.62178 0 0 0
73 0.00000 -0.50000 62.48780 0 0 0
74 0.00000 0.00000 63.35383 0 0 0
75 0.00000 -0.50000 64.21985 0 0 0
76 0.00000 0.00000 65.08588 0 0 0
77 0.00000 -0.50000 65.95191 0 0 0
78 0.00000 0.00000 66.81793 0 0 0
79 0.00000 -0.50000 67.68396 0 0 0
80 0.00000 0.00000 68.54998 0 0 0
81 0.00000 -0.50000 69.41601 0 0 0
82 0.00000 0.00000 70.28203 0 0 0
83 0.00000 -0.50000 71.14806 0 0 0
84 0.00000 0.00000 72.01408 0 0 0
85 0.00000 -0.50000 72.88011 0 0 0
86 0.00000 0.00000 73.74613 0 0 0
87 0.00000 -0.50000 74.61216 0 0 0
88 0.00000 0.00000 75.47818 0 0 0
89 0.00000 -0.50000 76.34421 0 0 0
90 0.00000 0.00000 77.21024 0 0 0
91 0.00000 -0.50000 78.07626 0 0 0
92 0.00000 0.00000 78.94229 0 0 0
93 0.00000 -0.50000 79.80831 0 0 0
94 0.00000 0.00000 80.67434 0 0 0
95 0.00000 -0.50000 81.54036 0 0 0
96 0.00000 0.00000 82.40639 0 0 0
97 0.00000 -0.50000 83.27241 0 0 0
98 0.00000 0.00000 84.13844 0 0 0
99 0.00000 -0.50000 85.00446 0 0 0
100 0.00000 0.00000 85.87049 0 0 0
101 0.00000 -0.50000 86.73651 0 0 0
102 0.00000 0.00000 87.60254 0 0 0
103 0.00000 -0.50000 88.46857 0 0 0
104 0.00000 0.00000 89.33459 0 0 0
105 0.00000 -0.50000 90.20062 0 0 0
106 0.00000 0.00000 91.06664 0 0 0
107 0.00000 -0.50000 91.93267 0 0 0
108 0.00000 0.00000 92.79869 0 0 0
109 0.00000 -0.50000 93.66472 0 0 0
110 0.00000 0.00000 94.53074 0 0 0
111 0.00000 -0.50000 95.39677 0 0 0
112 0.00000 0.00000 96.26279 0 0 0
113 0.00000 -0.50000 97.12882 0 0 0
114 0.00000 0.00000 97.99485 0 0 0
115 0.00000 -0.50000 98.86087 0 0 0
116 0.00000 0.00000 99.72690 0 0 0
117 0.00000 -0.50000 100.59292 0 0 0
118 0.00000 0.00000 101.45895 0 0 0
119 0.00000 -0.50000 102.32497 0 0 0
120 0.00000 0.00000 103.19100 0 0 0
121 0.00000 -0.50000 104.05702 0 0 0
122 0.00000 0.00000 104.92305 0 0 0
123 0.00000 -0.50000 105.78907 0 0 0
124 0.00000 0.00000 106.65510 0 0 0
125 0.00000 -0.50000 107.52112 0 0 0
126 0.00000 0.00000 108.38715 0 0 0
127 0.00000 -0.50000 109.25318 0 0 0
128 0.00000 0.00000 110.11920 0 0 0
129 0.00000 -0.50000 110.98523 0 0 0
130 0.00000 0.00000 111.85125 0 0 0
131 0.00000 -0.50000 112.71728 0 0 0
132 0.00000 0.00000 113.58330 0 0 0
133 0.00000 -0.50000 114.44933 0 0 0
134 0.00000 0.00000 115.31535 0 0 0
135 0.27297 -0.46177 116.15931 0 0 0
136 0.54595 -1.28365 116.65931 0 0 0
137 0.81892 -1.26157 117.62107 0 0 0
138 1.09189 -2.08345 118.12107 0 0 0
139 1.36487 -2.06138 119.08284 0 0 0
140 1.63784 -2.88326 119.58284 0 0 0
141 1.91081 -2.86119 120.54461 0 0 0
142 2.18379 -3.68307 121.04461 0 0 0
143 2.45676 -3.66099 122.00638 0 0 0
144 2.72974 -4.48287 122.50638 0 0 0
145 3.00271 -4.46080 123.46815 0 0 0
146 3.27568 -5.28268 123.96815 0 0 0
147 3.54866 -5.26060 124.92992 0 0 0
148 3.82163 -6.08248 125.42992 0 0 0
149 4.09460 -6.06041 126.39168 0 0 0
150 4.36758 -6.88229 126.89168 0 0 0
151 4.64055 -6.86022 127.85345 0 0 0
152 4.91352 -7.68210 128.35345 0 0 0
153 5.18650 -7.66002 129.31522 0 0 0
154 5.45947 -8.48190 129.81522 0 0 0
155 5.73244 -8.45983 130.77699 0 0 0
156 6.00542 -9.28171 131.27699 0 0 0
157 6.27839 -9.25964 132.23876 0 0 0
158 6.55137 -10.08151 132.73876 0 0 0
159 6.82434 -10.05944 133.70052 0 0 0
160 7.09731 -10.88132 134.20052 0 0 0
161 7.37029 -10.85925 135.16229 0 0 0
162 7.64326 -11.68113 135.66229 0 0 0
163 7.91623 -11.65905 136.62406 0 0 0
164 8.18921 -12.48093 137.12406 0 0 0
165 8.46218 -12.45886 138.08583 0 0 0
166 8.73515 -13.28074 138.58583 0 0 0
167 9.00813 -13.25867 139.54760 0 0 0
168 9.28110 -14.08055 140.04760 0 0 0
169 9.55407 -14.05847 141.00937 0 0 0
170 9.82705 -14.88035 141.50937 0 0 0
171 10.10002 -14.85828 142.47113 0 0 0
172 10.37299 -15.68016 142.97113 0 0 0
173 10.64597 -15.65808 143.93290 0 0 0
174 10.91894 -16.47996 144.43290 0 0 0
175 11.19192 -16.45789 145.39467 0 0 0
176 11.46489 -17.27977 145.89467 0 0 0
177 11.73786 -17.25770 146.85644 0 0 0
178 12.01084 -18.07958 147.35644 0 0 0
179 12.28381 -18.05750 148.31821 0 0 0
180 12.55678 -18.87938 148.81821 0 0 0
181 12.82976 -18.85731 149.77998 0 0 0
182 13.10273 -19.67919 150.27998 0 0 0
183 13.37570 -19.65712 151.24174 0 0 0
184 13.64868 -20.47899 151.74174 0 0 0
185 13.92165 -20.45692 152.70351 0 0 0
186 14.19462 -21.27880 153.20351 0 0 0
187 14.46760 -21.25673 154.16528 0 0 0
188 14.74057 -22.07861 154.66528 0 0 0
189 15.01355 -22.05653 155.62705 0 0 0
190 15.28652 -22.87841 156.12705 0 0 0
191 15.55949 -22.85634 157.08882 0 0 0
192 15.83247 -23.67822 157.58882 0 0 0
193 16.10544 -23.65615 158.55059 0 0 0
194 16.37841 -24.47802 159.05059 0 0 0
195 16.65139 -24.45595 160.01235 0 0 0
196 16.92436 -25.27783 160.51235 0 0 0
197 17.19733 -25.25576 161.47412 0 0 0
198 17.47031 -26.07764 161.97412 0 0 0
199 17.74328 -26.05556 162.93589 0 0 0
200 18.01625 -26.87744 163.43589 0 0 0
201 18.28923 -26.85537 164.39766 0 0 0
202 18.56220 -27.67725 164.89766 0 0 0
203 18.83517 -27.65518 165.85943 0 0 0
204 19.10815 -28.47706 166.35943 0 0 0
205 19.38112 -28.45498 167.32120 0 0 0
206 19.65410 -29.27686 167.82120 0 0 0
207 19.92707 -29.25479 168.78296 0 0 0
208 20.20004 -30.07667 169.28296 0 0 0
209 20.47302 -30.05459 170.24473 0 0 0
210 20.74599 -30.87647 170.74473 0 0 0
211 21.01896 -30.85440 171.70650 0 0 0
212 21.29194 -31.67628 172.20650 0 0 0
213 21.56491 -31.65421 173.16827 0 0 0
214 21.83788 -32.47609 173.66827 0 0 0
215 22.11086 -32.45401 174.63004 0 0 0
216 22.38383 -33.27589 175.13004 0 0 0
217 22.65680 -33.25382 176.09181 0 0 0
218 22.92978 -34.07570 176.59181 0 0 0
219 23.20275 -34.05363 177.55357 0 0 0
220 23.47573 -34.87550 178.05357 0 0 0
221 23.74870 -34.85343 179.01534 0 0 0
222 24.02167 -35.67531 179.51534 0 0 0
223 24.29465 -35.65324 180.47711 0 0 0
224 24.56762 -36.47512 180.97711 0 0 0
225 24.84059 -36.45304 181.93888 0 0 0
226 25.11357 -37.27492 182.43888 0 0 0
227 25.38654 -37.25285 183.40065 0 0 0
228 25.65951 -38.07473 183.90065 0 0 0
229 25.93249 -38.05266 184.86241 0 0 0
230 26.20546 -38.87454 185.36241 0 0 0
231 26.47843 -38.85246 186.32418 0 0 0
232 26.75141 -39.67434 186.82418 0 0 0
233 27.02438 -39.65227 187.78595 0 0 0
234 27.29735 -40.47415 188.28595 0 0 0
235 27.57033 -40.45207 189.24772 0 0 0
236 27.84330 -41.27395 189.74772 0 0 0
237 28.11628 -41.25188 190.70949 0 0 0
238 28.38925 -42.07376 191.20949 0 0 0
239 28.66222 -42.05169 192.17126 0 0 0
240 28.93520 -42.87357 192.67126 0 0 0
241 29.20817 -42.85149 193.63302 0 0 0
242 29.48114 -43.67337 194.13302 0 0 0
243 29.75412 -43.65130 195.09479 0 0 0
244 30.02709 -44.47318 195.59479 0 0 0
245 30.30006 -44.45110 196.55656 0 0 0
246 30.57304 -45.27298 197.05656 0 0 0
247 30.84601 -45.25091 198.01833 0 0 0
248 31.11898 -46.07279 198.51833 0 0 0
249 31.39196 -46.05072 199.48010 0 0 0
250 31.66493 -46.87260 199.98010 0 0 0
251 31.93791 -46.85052 200.94187 0 0 0
252 32.21088 -47.67240 201.44187 0 0 0
253 32.48385 -47.65033 202.40363 0 0 0
254 32.75683 -48.47221 202.90363 0 0 0
255 33.02980 -48.45014 203.86540 0 0 0
256 33.30277 -49.27201 204.36540 0 0 0
257 33.57575 -49.24994 205.32717 0 0 0
258 33.84872 -50.07182 205.82717 0 0 0
259 34.12169 -50.04975 206.78894 0 0 0
260 34.39467 -50.87163 207.28894 0 0 0
261 34.66764 -50.84955 208.25071 0 0 0
262 34.94061 -51.67143 208.75071 0 0 0
263 35.21359 -51.64936 209.71248 0 0 0
264 35.48656 -52.47124 210.21248 0 0 0
265 35.75953 -52.44917 211.17424 0 0 0
266 36.03251 -53.27105 211.67424 0 0 0
267 36.30548 -53.24897 212.63601 0 0 0
268 -0.27297 0.96177 115.33743 0 0 0
269 -0.54595 1.78365 115.83743 0 0 0
270 -0.81892 2.62760 115.37566 0 0 0
271 -1.09189 3.44948 115.87566 0 0 0
272 -1.36487 4.29343 115.41389 0 0 0
273 -1.63784 5.11531 115.91389 0 0 0
274 -1.91081 5.95926 115.45212 0 0 0
275 -2.18379 6.78114 115.95212 0 0 0
276 -2.45676 7.62509 115.49035 0 0 0
277 -2.72974 8.44697 115.99035 0 0 0
278 -3.00271 9.29093 115.52859 0 0 0
279 -3.27568 10.11281 116.02859 0 0 0
280 -3.54866 10.95676 115.56682 0 0 0
281 -3.82163 11.77864 116.06682 0 0 0
282 -4.09460 12.62259 115.60505 0 0 0
283 -4.36758 13.44447 116.10505 0 0 0
284 -4.64055 14.28842 115.64328 0 0 0
285 -4.91352 15.11030 116.14328 0 0 0
286 -5.18650 15.95425 115.68151 0 0 0
287 -5.45947 16.77613 116.18151 0 0 0
288 -5.73244 17.62008 115.71974 0 0 0
289 -6.00542 18.44196 116.21974 0 0 0
290 -6.27839 19.28592 115.75798 0 0 0
291 -6.55137 20.10779 116.25798 0 0 0
292 -6.82434 20.95175 115.79621 0 0 0
293 -7.09731 21.77363 116.29621 0 0 0
294 -7.37029 22.61758 115.83444 0 0 0
295 -7.64326 23.43946 116.33444 0 0 0
296 -7.91623 24.28341 115.87267 0 0 0
297 -8.18921 25.10529 116.37267 0 0 0
298 -8.46218 25.94924 115.91090 0 0 0
299 -8.73515 26.77112 116.41090 0 0 0
300 -9.00813 27.61507 115.94913 0 0 0
301 -9.28110 28.43695 116.44913 0 0 0
302 -9.55407 29.28090 115.98737 0 0 0
303 -9.82705 30.10278 116.48737 0 0 0
304 -10.10002 30.94674 116.02560 0 0 0
305 -10.37299 31.76861 116.52560 0 0 0
306 -10.64597 32.61257 116.06383 0 0 0
307 -10.91894 33.43445 116.56383 0 0 0
308 -11.19192 34.27840 116.10206 0 0 0
309 -11.46489 35.10028 116.60206 0 0 0
310 -11.73786 35.94423 116.14029 0 0 0
311 -12.01084 36.76611 116.64029 0 0 0
312 -12.28381 37.61006 116.17852 0 0 0
313 -12.55678 38.43194 116.67852 0 0 0
314 -12.82976 39.27589 116.21676 0 0 0
315 -13.10273 40.09777 116.71676 0 0 0
316 -13.37570 40.94172 116.25499 0 0 0
317 -13.64868 41.76360 116.75499 0 0 0
318 -13.92165 42.60756 116.29322 0 0 0
319 -14.19462 43.42944 116.79322 0 0 0
320 -14.46760 44.27339 116.33145 0 0 0
321 -14.74057 45.09527 116.83145 0 0 0
322 -15.01355 45.93922 116.36968 0 0 0
323 -15.28652 46.76110 116.86968 0 0 0
324 -15.55949 47.60505 116.40791 0 0 0
325 -15.83247 48.42693 116.90791 0 0 0
326 -16.10544 49.27088 116.44615 0 0 0
327 -16.37841 50.09276 116.94615 0 0 0
328 -16.65139 50.93671 116.48438 0 0 0
329 -16.92436 51.75859 116.98438 0 0 0
330 -17.19733 52.60255 116.52261 0 0 0
331 -17.47031 53.42442 117.02261 0 0 0
332 -17.74328 54.26838 116.56084 0 0 0
333 -18.01625 55.09026 117.06084 0 0 0
334 -18.28923 55.93421 116.59907 0 0 0
335 -18.56220 56.75609 117.09907 0 0 0
336 -18.83517 57.60004 116.63730 0 0 0
337 -19.10815 58.42192 117.13730 0 0 0
338 -19.38112 59.26587 116.67554 0 0 0
339 -19.65410 60.08775 117.17554 0 0 0
340 -19.92707 60.93170 116.71377 0 0 0
341 -20.20004 61.75358 117.21377 0 0 0
342 -20.47302 62.59753 116.75200 0 0 0
343 -20.74599 63.41941 117.25200 0 0 0
344 -21.01896 64.26337 116.79023 0 0 0
345 -21.29194 65.08525 117.29023 0 0 0
346 -21.56491 65.92920 116.82846 0 0 0
347 -21.83788 66.75108 117.32846 0 0 0
348 -22.11086 67.59503 116.86670 0 0 0
349 -22.38383 68.41691 117.36670 0 0 0
350 -22.65680 69.26086 116.90493 0 0 0
351 -22.92978 70.08274 117.40493 0 0 0
352 -23.20275 70.92669 116.94316 0 0 0
353 -23.47573 71.74857 117.44316 0 0 0
354 -23.74870 72.59252 116.98139 0 0 0
355 -24.02167 73.41440 117.48139 0 0 0
356 -24.29465 74.25836 117.01962 0 0 0
357 -24.56762 75.08023 117.51962 0 0 0
358 -24.84059 75.92419 117.05785 0 0 0
359 -25.11357 76.74607 117.55785 0 0 0
360 -25.38654 77.59002 117.09609 0 0 0
361 -25.65951 78.41190 117.59609 0 0 0
362 -25.93249 79.25585 117.13432 0 0 0
363 -26.20546 80.07773 117.63432 0 0 0
364 -26.47843 80.92168 117.17255 0 0 0
365 -26.75141 81.74356 117.67255 0 0 0
366 -27.02438 82.58751 117.21078 0 0 0
367 -27.29735 83.40939 117.71078 0 0 0
368 -27.57033 84.25334 117.24901 0 0 0
369 -27.84330 85.07522 117.74901 0 0 0
370 -28.11628 85.91918 117.28724 0 0 0
371 -28.38925 86.74106 117.78724 0 0 0
372 -28.66222 87.58501 117.32548 0 0 0
373 -28.93520 88.40689 117.82548 0 0 0
374 -29.20817 89.25084 117.36371 0 0 0
375 -29.48114 90.07272 117.86371 0 0 0
376 -29.75412 90.91667 117.40194 0 0 0
377 -30.02709 91.73855 117.90194 0 0 0
378 -30.30006 92.58250 117.44017 0 0 0
379 -30.57304 93.40438 117.94017 0 0 0
380 -30.84601 94.24833 117.47840 0 0 0
381 -31.11898 95.07021 117.97840 0 0 0
382 -31.39196 95.91417 117.51663 0 0 0
383 -31.66493 96.73604 118.01663 0 0 0
384 -31.93791 97.58000 117.55487 0 0 0
385 -32.21088 98.40188 118.05487 0 0 0
386 -32.48385 99.24583 117.59310 0 0 0
387 -32.75683 100.06771 118.09310 0 0 0
388 -33.02980 100.91166 117.63133 0 0 0
389 -33.30277 101.73354 118.13133 0 0 0
390 -33.57575 102.57749 117.66956 0 0 0
391 -33.84872 103.39937 118.16956 0 0 0
392 -34.12169 104.24332 117.70779 0 0 0
393 -34.39467 105.06520 118.20779 0 0 0
394 -34.66764 105.90915 117.74602 0 0 0
395 -34.94061 106.73103 118.24602 0 0 0
396 -35.21359 107.57499 117.78426 0 0 0
397 -35.48656 108.39686 118.28426 0 0 0
398 -35.75953 109.24082 117.82249 0 0 0
399 -36.03251 110.06270 118.32249 0 0 0
400 -36.30548 110.90665 117.86072 0 0 0
ITEM: TIMESTEP
1000
ITEM: NUMBER OF ATOMS
400
ITEM: BOX BOUNDS pp pp pp
-1.0000000000000000e+03 1.0000000000000000e+03
-1.0000000000000000e+03 1.0000000000000000e+03
-1.0000000000000000e+03 1.0000000000000000e+03
ITEM: ATOMS id x y z ix iy iz
1 3.49891 -1.01333 2.84264 0 0 0
2 3.16381 -0.25679 3.34614 0 0 0
3 2.43992 -0.28646 3.91326 0 0 0
4 1.85465 -0.80061 4.52768 0 0 0
5 1.74423 -1.44800 5.28056 0 0 0
6 1.69594 -0.83450 6.04364 0 0 0
7 1.70340 -0.86101 7.01850 0 0 0
8 1.57525 -1.40005 7.81013 0 0 0
9 0.79125 -1.79948 8.16996 0 0 0
10 0.69789 -1.57608 9.09896 0 0 0
11 0.42179 -1.30445 9.97332 0 0 0
12 0.72725 -1.39450 10.92104 0 0 0
13 0.36575 -1.71579 11.73053 0 0 0
14 -0.40116 -2.15334 12.21381 0 0 0
15 -0.40341 -1.18700 12.25341 0 0 0
16 -0.66881 -0.91911 13.14895 0 0 0
17 -0.93548 -1.34328 13.98802 0 0 0
18 -1.15204 -1.92122 14.75229 0 0 0
19 -1.46144 -1.64980 15.61766 0 0 0
20 -1.50266 -2.12459 16.43754 0 0 0
21 -0.92009 -1.75349 17.14569 0 0 0
22 -1.04899 -1.68665 18.11814 0 0 0
23 -1.52896 -1.23297 18.89080 0 0 0
24 -1.00092 -1.08096 19.71339 0 0 0
25 -0.57911 -1.52967 20.41966 0 0 0
26 -0.60054 -1.08714 21.37224 0 0 0
27 -0.47399 -0.74872 22.25470 0 0 0
28 0.16398 -0.38331 23.01492 0 0 0
29 0.17041 -0.26705 23.98422 0 0 0
30 0.10445 -0.13509 24.98739 0 0 0
31 -0.07521 -0.32160 25.93447 0 0 0
32 0.32000 -0.11734 26.78773 0 0 0
33 0.06990 -0.14707 27.73126 0 0 0
34 -0.29999 0.22838 28.58892 0 0 0
35 -0.22797 0.03156 29.53444 0 0 0
36 0.02441 -0.58100 30.30855 0 0 0
37 -0.17599 -0.76547 31.28623 0 0 0
38 -0.36124 -1.16833 32.14261 0 0 0
39 0.37636 -1.31945 32.83475 0 0 0
40 0.22889 -0.95687 33.73812 0 0 0
41 -0.33773 -0.93973 34.54876 0 0 0
42 -0.85399 -0.97501 35.48184 0 0 0
43 -0.13703 -0.79468 36.11876 0 0 0
44 0.36227 -0.86502 36.93983 0 0 0
45 0.46182 -1.50482 37.63331 0 0 0
46 0.32084 -1.48082 38.62997 0 0 0
47 -0.06835 -1.19939 39.47909 0 0 0
48 -0.19942 -0.85702 40.47602 0 0 0
49 0.36120 -0.70756 41.24018 0 0 0
50 0.48830 -0.45153 42.20435 0 0 0
51 -0.12650 -0.08556 42.90553 0 0 0
52 -0.63403 0.21848 43.74114 0 0 0
53 -0.81863 -0.07216 44.78426 0 0 0
54 -0.66350 -0.12666 45.78468 0 0 0
55 -0.51849 -0.55051 46.61818 0 0 0
56 -0.16852 -0.17271 47.49392 0 0 0
57 0.01606 0.06724 48.51321 0 0 0
58 -0.19926 0.40400 49.40256 0 0 0
59 -0.07991 0.04600 50.44122 0 0 0
60 -0.17827 -0.35926 51.42212 0 0 0
61 -0.04040 -0.53899 52.34693 0 0 0
62 -0.58235 -0.98465 53.00902 0 0 0
63 -0.42276 -1.13929 53.97742 0 0 0
64 -0.46132 -1.32049 55.01131 0 0 0
65 -0.87343 -0.96266 55.77334 0 0 0
66 -1.35496 -0.37496 56.39510 0 0 0
67 -1.62610 -0.94786 57.17345 0 0 0
68 -2.01996 -0.95293 58.08381 0 0 0
69 -2.07559 -0.43321 58.91900 0 0 0
70 -2.02125 -0.22012 59.91444 0 0 0
71 -1.70466 0.24180 60.84044 0 0 0
72 -1.07865 -0.19657 61.41143 0 0 0
73 -0.75402 -0.28303 62.32758 0 0 0
74 -0.58996 -0.71217 63.21776 0 0 0
75 -0.66508 -0.08060 64.05394 0 0 0
76 -1.01435 0.26260 64.92055 0 0 0
77 -1.42109 0.77781 65.68249 0 0 0
78 -0.86802 0.88668 66.56709 0 0 0
79 -0.91423 0.41952 67.40543 0 0 0
80 -0.57044 0.21813 68.35898 0 0 0
81 -0.47032 0.45963 69.33890 0 0 0
82 0.12979 0.35481 70.08322 0 0 0
83 -0.05708 -0.15129 70.91971 0 0 0
84 0.60412 0.26556 71.50807 0 0 0
85 0.82233 0.14326 72.49843 0 0 0
86 1.13249 0.04038 73.38634 0 0 0
87 1.31338 -0.00992 74.36903 0 0 0
88 1.11282 0.25128 75.28048 0 0 0
89 0.36832 0.34318 75.91585 0 0 0
90 0.79885 0.06389 76.78468 0 0 0
91 0.75686 0.11210 77.76102 0 0 0
92 0.84535 -0.07061 78.74937 0 0 0
93 0.79987 0.13626 79.74003 0 0 0
94 1.11230 -0.00864 80.63926 0 0 0
95 0.42792 0.07500 81.32621 0 0 0
96 -0.22783 -0.18496 82.09289 0 0 0
97 -0.43180 -0.68563 82.85793 0 0 0
98 -0.43366 -1.02392 83.79435 0 0 0
99 -0.59634 -0.94767 84.76275 0 0 0
100 -0.66050 -0.48221 85.59236 0 0 0
101 -0.44056 -0.53027 86.55669 0 0 0
102 -0.63598 -1.03231 87.38401 0 0 0
103 -0.34209 -1.17536 88.32857 0 0 0
104 -0.26310 -1.05373 89.35048 0 0 0
105 -0.55055 -0.96845 90.23339 0 0 0
106 -1.03263 -0.90375 91.06370 0 0 0
107 -0.42516 -0.90612 91.88154 0 0 0
108 -0.26980 -0.59644 92.91591 0 0 0
109 -0.34145 -0.53216 93.92115 0 0 0
110 -0.17473 -1.05793 94.66408 0 0 0
111 -0.56771 -0.94132 95.50012 0 0 0
112 -0.23361 -0.67277 96.30416 0 0 0
113 -0.73334 -0.36062 97.16806 0 0 0
114 -0.94539 -0.59864 98.08723 0 0 0
115 -0.96318 -0.91357 98.97439 0 0 0
116 -0.18473 -1.08471 99.57782 0 0 0
117 -0.11919 -0.81862 100.57193 0 0 0
118 -0.37339 -0.44500 101.44914 0 0 0
119 -0.06149 -0.40971 102.37321 0 0 0
120 -0.35807 -0.39132 103.31894 0 0 0
121 -0.94783 -0.24397 104.12925 0 0 0
122 -1.20130 -0.26216 105.12524 0 0 0
123 -1.04450 -0.28741 106.07570 0 0 0
124 -1.39202 -0.23426 107.04080 0 0 0
125 -1.24957 -0.60431 108.04913 0 0 0
126 -1.17306 -0.65028 109.06948 0 0 0
127 -0.71819 -0.72547 109.95810 0 0 0
128 -1.38335 -0.40718 110.63610 0 0 0
129 -1.37228 -0.30354 111.61602 0 0 0
130 -1.21992 -0.25192 112.62014 0 0 0
131 -0.51507 -0.09245 113.38629 0 0 0
132 -0.45897 0.45989 114.25798 0 0 0
133 -0.50721 0.59862 115.20117 0 0 0
134 -0.23594 0.76959 116.12844 0 0 0
135 0.58813 0.38608 116.58974 0 0 0
136 1.12857 -0.41746 116.89747 0 0 0
137 1.36426 -0.35205 117.84269 0 0 0
138 1.32404 -0.70086 118.75053 0 0 0
139 2.11800 -0.90641 119.42195 0 0 0
140 1.65470 -1.48814 120.10541 0 0 0
141 2.11697 -2.23980 120.38702 0 0 0
142 2.58707 -2.54914 121.21497 0 0 0
143 2.44490 -2.63614 122.21269 0 0 0
144 2.65830 -3.46381 122.80732 0 0 0
145 3.04586 -3.30748 123.71325 0 0 0
146 3.36797 -4.00361 124.31694 0 0 0
147 3.81422 -4.72525 124.81489 0 0 0
148 4.47296 -5.33094 125.33917 0 0 0
149 4.56628 -5.86026 126.21255 0 0 0
150 4.98505 -6.42161 126.83619 0 0 0
151 5.11117 -7.11765 127.61152 0 0 0
152 5.44085 -7.93997 127.95600 0 0 0
153 6.21642 -7.86380 128.67784 0 0 0
154 6.62274 -8.26584 129.43173 0 0 0
155 7.26413 -8.58558 130.20761 0 0 0
156 7.31698 -9.48015 130.64798 0 0 0
157 7.26168 -9.51889 131.63478 0 0 0
158 7.47041 -9.59487 132.60557 0 0 0
159 7.49986 -10.32648 133.27923 0 0 0
160 8.32818 -10.51674 133.80471 0 0 0
161 8.57659 -10.89867 134.72999 0 0 0
162 8.57794 -11.75499 135.23672 0 0 0
163 8.85638 -11.91127 136.12321 0 0 0
164 9.03500 -12.61771 136.76798 0 0 0
165 9.24973 -12.70285 137.73388 0 0 0
166 9.41608 -13.24814 138.54111 0 0 0
167 9.76593 -13.58404 139.36410 0 0 0
168 9.99084 -13.89500 140.33305 0 0 0
169 10.32279 -14.54438 141.00683 0 0 0
170 10.25293 -14.68941 141.98124 0 0 0
171 10.22912 -15.48699 142.74101 0 0 0
172 10.60869 -15.89973 143.56875 0 0 0
173 10.52141 -16.55531 144.33644 0 0 0
174 10.86386 -16.89983 145.26039 0 0 0
175 11.31430 -17.30457 146.01499 0 0 0
176 10.66747 -17.84037 146.75946 0 0 0
177 10.84865 -18.01658 147.71059 0 0 0
178 11.02600 -18.87084 148.47401 0 0 0
179 10.86740 -19.70065 149.18982 0 0 0
180 11.33858 -18.91311 149.72040 0 0 0
181 11.55632 -18.76878 150.72773 0 0 0
182 11.69655 -19.52143 151.32149 0 0 0
183 12.13897 -19.94740 152.18922 0 0 0
184 12.15703 -20.48674 153.01039 0 0 0
185 12.69834 -20.84616 153.72263 0 0 0
186 12.58304 -21.43511 154.46505 0 0 0
187 12.89359 -21.93531 155.23612 0 0 0
188 13.24836 -22.67247 155.79034 0 0 0
189 13.63683 -22.27635 156.65408 0 0 0
190 13.80508 -22.76174 157.48050 0 0 0
191 13.82794 -23.46115 158.19449 0 0 0
192 14.46692 -23.90426 158.78312 0 0 0
193 15.43545 -24.10360 159.06993 0 0 0
194 15.82799 -24.56627 159.90990 0 0 0
195 15.82781 -24.91581 160.93864 0 0 0
196 16.20881 -25.50459 161.59833 0 0 0
197 16.26331 -26.41818 162.02775 0 0 0
198 16.67522 -26.90962 162.81487 0 0 0
199 17.05057 -26.87683 163.74912 0 0 0
200 17.73912 -27.39340 164.25320 0 0 0
201 18.18497 -27.16752 165.14076 0 0 0
202 18.06338 -27.64337 166.03113 0 0 0
203 18.50980 -28.33356 166.47939 0 0 0
204 18.62217 -29.17017 167.08806 0 0 0
205 18.42643 -29.92836 167.74203 0 0 0
206 19.31813 -30.25386 168.05242 0 0 0
207 19.69273 -30.17665 168.93722 0 0 0
208 19.93244 -30.20912 169.89651 0 0 0
209 20.58925 -30.81264 170.33178 0 0 0
210 20.39123 -30.76949 171.29030 0 0 0
211 20.25396 -31.33403 172.12540 0 0 0
212 20.32597 -31.64037 173.05117 0 0 0
213 21.08543 -31.72060 173.66274 0 0 0
214 21.40825 -31.75486 174.59459 0 0 0
215 21.75736 -32.12074 175.47670 0 0 0
216 22.43793 -32.12369 176.19936 0 0 0
217 22.85249 -32.70640 176.87087 0 0 0
218 22.56345 -33.47807 177.61313 0 0 0
219 23.37174 -33.62352 178.09885 0 0 0
220 23.45708 -33.78929 179.01973 0 0 0
221 23.42225 -34.72184 179.52108 0 0 0
222 23.74439 -35.34672 180.25754 0 0 0
223 24.27502 -35.89808 180.84606 0 0 0
224 24.87566 -35.36617 181.36821 0 0 0
225 25.56092 -35.89453 181.67506 0 0 0
226 25.31665 -36.19463 182.59576 0 0 0
227 25.78043 -36.96500 183.05118 0 0 0
228 25.77092 -37.44321 183.93815 0 0 0
229 25.52560 -37.59421 184.86892 0 0 0
230 25.73928 -38.09869 185.67823 0 0 0
231 26.40354 -38.31452 186.45632 0 0 0
232 26.24603 -38.62634 187.46037 0 0 0
233 26.59397 -38.83652 188.39223 0 0 0
234 27.11690 -39.70586 188.57634 0 0 0
235 27.40634 -40.18194 189.34845 0 0 0
236 27.27380 -40.23950 190.40467 0 0 0
237 27.93168 -40.71964 190.88794 0 0 0
238 28.44898 -41.16258 191.57667 0 0 0
239 29.12338 -41.72508 192.00775 0 0 0
240 29.89978 -42.06440 192.58086 0 0 0
241 30.16439 -42.14542 193.45329 0 0 0
242 30.25766 -42.87170 194.06726 0 0 0
243 30.96132 -43.57105 194.46300 0 0 0
244 30.73433 -43.38588 195.36755 0 0 0
245 31.37830 -43.84608 195.94381 0 0 0
246 31.29340 -44.57343 196.55243 0 0 0
247 30.96147 -45.03483 197.35572 0 0 0
248 31.30721 -44.91099 198.26657 0 0 0
249 31.68820 -45.12250 199.12487 0 0 0
250 32.54987 -45.22837 199.65834 0 0 0
251 32.83508 -45.23410 200.61618 0 0 0
252 32.86482 -44.69131 201.48508 0 0 0
253 32.69871 -45.37437 202.21094 0 0 0
254 32.26766 -46.02498 202.81325 0 0 0
255 32.51011 -46.91869 203.04913 0 0 0
256 33.20613 -47.64930 203.18555 0 0 0
257 33.43892 -48.17619 203.97299 0 0 0
258 32.95633 -48.40915 204.78092 0 0 0
259 33.00877 -49.13182 205.40137 0 0 0
260 32.53717 -49.29978 206.28232 0 0 0
261 33.29749 -49.92714 206.51268 0 0 0
262 33.61605 -49.95235 207.46462 0 0 0
263 33.87291 -50.74826 208.17178 0 0 0
264 34.18701 -49.99244 208.65824 0 0 0
265 33.82920 -49.48000 209.37956 0 0 0
266 34.60475 -49.24264 209.92274 0 0 0
267 35.30068 -49.28919 209.20720 0 0 0
268 -0.42501 1.74945 115.88641 0 0 0
269 -0.90965 2.66634 115.74589 0 0 0
270 -0.79917 3.10991 114.85324 0 0 0
271 -1.04402 4.01595 114.85826 0 0 0
272 -1.82619 4.52425 114.93697 0 0 0
273 -2.06256 5.48232 114.98237 0 0 0
274 -2.29673 6.53300 114.92923 0 0 0
275 -2.57647 7.55349 114.84593 0 0 0
276 -3.19301 8.27046 114.67704 0 0 0
277 -2.95741 9.05728 115.14621 0 0 0
278 -3.15457 9.95672 115.16558 0 0 0
279 -3.10942 10.95924 115.42602 0 0 0
280 -3.57379 11.68438 115.96126 0 0 0
281 -4.19841 12.46000 115.66624 0 0 0
282 -4.41693 13.37176 115.44535 0 0 0
283 -4.83116 14.12892 115.86595 0 0 0
284 -5.22278 15.05576 115.86823 0 0 0
285 -5.33236 16.00517 115.91605 0 0 0
286 -5.35759 16.90335 115.33800 0 0 0
287 -5.70232 17.61345 114.77390 0 0 0
288 -6.36448 18.34554 114.87272 0 0 0
289 -6.86078 19.19686 114.77229 0 0 0
290 -7.00889 20.13775 114.77115 0 0 0
291 -7.17025 21.00464 115.07278 0 0 0
292 -7.75166 21.64319 115.59313 0 0 0
293 -7.48567 22.52401 115.40730 0 0 0
294 -7.66629 23.48181 115.60232 0 0 0
295 -8.02410 24.34752 115.67722 0 0 0
296 -8.03147 25.28962 115.83162 0 0 0
297 -7.88765 26.23024 115.88787 0 0 0
298 -8.34667 26.88561 115.33860 0 0 0
299 -8.75462 27.62106 115.87224 0 0 0
300 -8.37058 28.56340 115.80355 0 0 0
301 -8.99226 29.22734 116.09232 0 0 0
302 -9.78648 29.65721 116.33482 0 0 0
303 -10.72161 29.94094 116.50551 0 0 0
304 -10.68468 30.96688 116.58674 0 0 0
305 -10.76969 31.95514 116.70638 0 0 0
306 -11.34868 32.76490 116.74337 0 0 0
307 -11.08452 33.66687 116.98274 0 0 0
308 -11.74556 34.44732 117.07090 0 0 0
309 -11.89536 35.28103 117.52921 0 0 0
310 -11.96453 36.26218 117.79797 0 0 0
311 -11.93085 37.25840 117.83297 0 0 0
312 -11.99923 38.14280 117.38715 0 0 0
313 -12.11260 38.92040 116.68661 0 0 0
314 -12.65242 39.77677 116.43315 0 0 0
315 -13.31758 40.43022 116.32075 0 0 0
316 -13.53503 41.35765 116.11709 0 0 0
317 -13.43322 42.29850 115.81162 0 0 0
318 -13.51930 43.28782 115.84209 0 0 0
319 -13.90471 43.69462 115.01942 0 0 0
320 -14.59959 44.41762 115.01989 0 0 0
321 -15.12366 45.18451 114.81078 0 0 0
322 -15.21638 46.16238 114.98397 0 0 0
323 -15.85135 46.64690 115.49612 0 0 0
324 -15.73529 47.60799 115.86805 0 0 0
325 -15.88928 48.63136 116.02371 0 0 0
326 -15.50399 49.52394 115.97283 0 0 0
327 -15.13342 50.45943 115.95366 0 0 0
328 -15.53259 51.18458 116.54509 0 0 0
329 -16.24244 51.86474 116.58131 0 0 0
330 -16.67844 52.73938 116.96411 0 0 0
331 -16.84719 53.70702 117.43428 0 0 0
332 -17.31856 54.54907 117.65885 0 0 0
333 -17.11541 55.47965 117.37868 0 0 0
334 -17.48368 56.18776 116.72439 0 0 0
335 -18.31056 56.74583 116.63587 0 0 0
336 -18.98139 57.56367 116.65734 0 0 0
337 -19.14348 58.45606 116.21464 0 0 0
338 -19.35484 59.37722 115.97949 0 0 0
339 -19.44315 60.26326 116.24584 0 0 0
340 -19.56042 61.22056 116.02630 0 0 0
341 -20.14384 62.00477 116.02763 0 0 0
342 -20.72225 62.34498 116.81737 0 0 0
343 -20.92720 63.21418 117.15575 0 0 0
344 -21.35043 64.06908 117.17511 0 0 0
345 -21.52840 65.01490 116.83324 0 0 0
346 -21.82429 66.00816 117.06384 0 0 0
347 -22.22679 66.84866 116.84204 0 0 0
348 -22.42385 67.83585 116.81453 0 0 0
349 -22.18425 68.74781 116.54398 0 0 0
350 -22.24316 69.69611 116.60776 0 0 0
351 -22.02363 70.24272 115.88758 0 0 0
352 -22.62266 70.95990 116.09512 0 0 0
353 -23.09955 71.78813 116.20196 0 0 0
354 -23.49723 72.60045 116.38581 0 0 0
355 -24.04590 73.36805 116.22576 0 0 0
356 -24.32445 74.30773 116.11422 0 0 0
357 -24.81042 75.21006 116.42560 0 0 0
358 -25.14774 75.97218 116.88383 0 0 0
359 -25.38948 76.94884 117.19794 0 0 0
360 -25.25588 77.87833 117.02556 0 0 0
361 -25.36786 78.78085 117.46950 0 0 0
362 -25.51986 79.76615 117.47854 0 0 0
363 -25.47647 80.61724 118.02586 0 0 0
364 -26.47868 80.88826 118.03520 0 0 0
365 -27.14096 81.58834 118.08726 0 0 0
366 -27.78120 82.33632 117.91711 0 0 0
367 -27.83291 83.28393 117.62188 0 0 0
368 -28.04102 84.04118 118.29168 0 0 0
369 -27.44051 84.86933 118.36304 0 0 0
370 -27.82405 85.68437 118.74681 0 0 0
371 -27.65826 86.62385 118.57949 0 0 0
372 -27.61031 87.37620 118.05391 0 0 0
373 -27.47161 88.31736 118.30903 0 0 0
374 -27.99314 89.03908 118.61048 0 0 0
375 -28.03904 89.96893 118.73194 0 0 0
376 -28.37943 90.89147 118.81913 0 0 0
377 -29.04206 91.62776 118.80303 0 0 0
378 -29.55069 92.20325 119.39856 0 0 0
379 -30.06397 93.00815 119.20603 0 0 0
380 -30.78164 93.76822 119.08723 0 0 0
381 -30.88782 94.73356 118.72070 0 0 0
382 -30.79083 95.64301 118.49047 0 0 0
383 -31.38077 96.56206 118.62776 0 0 0
384 -31.01393 97.42059 118.44159 0 0 0
385 -30.44621 98.24399 118.72107 0 0 0
386 -31.12590 98.93370 118.82804 0 0 0
387 -31.94125 99.51428 118.73379 0 0 0