ITEM: TIMESTEP
0
ITEM: NUMBER OF ATOMS
200
ITEM: BOX BOUNDS pp pp pp
-1.0000000000000000e+03 1.0000000000000000e+03
-1.0000000000000000e+03 1.0000000000000000e+03
-1.0000000000000000e+03 1.0000000000000000e+03
ITEM: ATOMS id x y z ix iy iz
1 0.00000 0.00000 0.00000 0 0 0
2 0.00000 1.00000 0.00000 0 0 0
3 0.00000 1.86603 0.50000 0 0 0
4 0.00000 2.73205 0.00000 0 0 0
5 0.00000 3.59808 0.50000 0 0 0
6 0.00000 4.46410 0.00000 0 0 0
7 0.00000 5.33013 0.50000 0 0 0
8 0.00000 6.19615 0.00000 0 0 0
9 0.00000 7.06218 0.50000 0 0 0
10 0.00000 7.92820 0.00000 0 0 0
11 0.00000 8.79423 0.50000 0 0 0
12 0.00000 9.66025 0.00000 0 0 0
13 0.00000 10.52628 0.50000 0 0 0
14 0.00000 11.39230 0.00000 0 0 0
15 0.00000 12.25833 0.50000 0 0 0
16 0.00000 13.12436 0.00000 0 0 0
17 0.00000 13.99038 0.50000 0 0 0
18 0.00000 14.85641 0.00000 0 0 0
19 0.00000 15.72243 0.50000 0 0 0
20 0.00000 16.58846 0.00000 0 0 0
21 0.00000 17.45448 0.50000 0 0 0
22 0.00000 18.32051 0.00000 0 0 0
23 0.00000 19.18653 0.50000 0 0 0
24 0.00000 20.05256 0.00000 0 0 0
25 0.00000 20.91858 0.50000 0 0 0
26 0.00000 21.78461 0.00000 0 0 0
27 0.00000 22.65064 0.50000 0 0 0
28 0.00000 23.51666 0.00000 0 0 0
29 0.00000 24.38269 0.50000 0 0 0
30 0.00000 25.24871 0.00000 0 0 0
31 0.00000 26.11474 0.50000 0 0 0
32 0.00000 26.98076 0.00000 0 0 0
33 0.00000 27.84679 0.50000 0 0 0
34 0.00000 28.71281 0.00000 0 0 0
35 0.00000 29.57884 0.50000 0 0 0
36 0.00000 30.44486 0.00000 0 0 0
37 0.00000 31.31089 0.50000 0 0 0
38 0.00000 32.17691 0.00000 0 0 0
39 0.00000 33.04294 0.50000 0 0 0
40 0.00000 33.90897 0.00000 0 0 0
41 0.00000 34.77499 0.50000 0 0 0
42 0.00000 35.64102 0.00000 0 0 0
43 0.00000 36.50704 0.50000 0 0 0
44 0.00000 37.37307 0.00000 0 0 0
45 0.00000 38.23909 0.50000 0 0 0
46 0.00000 39.10512 0.00000 0 0 0
47 0.00000 39.97114 0.50000 0 0 0
48 0.00000 40.83717 0.00000 0 0 0
49 0.00000 41.70319 0.50000 0 0 0
50 0.00000 42.56922 0.00000 0 0 0
51 0.00000 43.43524 0.50000 0 0 0
52 0.00000 44.30127 0.00000 0 0 0
53 0.00000 45.16730 0.50000 0 0 0
54 0.00000 46.03332 0.00000 0 0 0
55 0.00000 46.89935 0.50000 0 0 0
56 0.00000 47.76537 0.00000 0 0 0
57 0.00000 48.63140 0.50000 0 0 0
58 0.00000 49.49742 0.00000 0 0 0
59 0.00000 50.36345 0.50000 0 0 0
60 0.00000 51.22947 0.00000 0 0 0
61 0.00000 52.09550 0.50000 0 0 0
62 0.00000 52.96152 0.00000 0 0 0
63 0.00000 53.82755 0.50000 0 0 0
64 0.00000 54.69358 0.00000 0 0 0
65 0.00000 55.55960 0.50000 0 0 0
66 0.00000 56.42563 0.00000 0 0 0
67 0.00000 57.29165 0.50000 0 0 0
68 0.00000 58.15768 0.00000 0 0 0
69 0.00000 59.02370 0.50000 0 0 0
70 0.00000 59.88973 0.00000 0 0 0
71 0.00000 60.75575 0.50000 0 0 0
72 0.00000 61.62178 0.00000 0 0 0
73 0.00000 62.48780 0.50000 0 0 0
74 0.00000 63.35383 0.00000 0 0 0
75 0.00000 64.21985 0.50000 0 0 0
76 0.00000 65.08588 0.00000 0 0 0
77 0.00000 65.95191 0.50000 0 0 0
78 0.00000 66.81793 0.00000 0 0 0
79 0.00000 67.68396 0.50000 0 0 0
80 0.00000 68.54998 0.00000 0 0 0
81 0.00000 69.41601 0.50000 0 0 0
82 0.00000 70.28203 0.00000 0 0 0
83 0.00000 71.14806 0.50000 0 0 0
84 0.00000 72.01408 0.00000 0 0 0
85 0.00000 72.88011 0.50000 0 0 0
86 0.00000 73.74613 0.00000 0 0 0
87 0.00000 74.61216 0.50000 0 0 0
88 0.00000 75.47818 0.00000 0 0 0
89 0.00000 76.34421 0.50000 0 0 0
90 0.00000 77.21024 0.00000 0 0 0
91 0.00000 78.07626 0.50000 0 0 0
92 0.00000 78.94229 0.00000 0 0 0
93 0.00000 79.80831 0.50000 0 0 0
94 0.00000 80.67434 0.00000 0 0 0
95 0.00000 81.54036 0.50000 0 0 0
96 0.00000 82.40639 0.00000 0 0 0
97 0.00000 83.27241 0.50000 0 0 0
98 0.00000 84.13844 0.00000 0 0 0
99 0.00000 85.00446 0.50000 0 0 0
100 0.00000 85.87049 0.00000 0 0 0
101 0.00000 86.73651 0.50000 0 0 0
102 0.00000 87.60254 0.00000 0 0 0
103 0.00000 88.46857 0.50000 0 0 0
104 0.00000 89.33459 0.00000 0 0 0
105 0.00000 90.20062 0.50000 0 0 0
106 0.00000 91.06664 0.00000 0 0 0
107 0.00000 91.93267 0.50000 0 0 0
108 0.00000 92.79869 0.00000 0 0 0
109 0.00000 93.66472 0.50000 0 0 0
110 0.00000 94.53074 0.00000 0 0 0
111 0.00000 95.39677 0.50000 0 0 0
112 0.00000 96.26279 0.00000 0 0 0
113 0.00000 97.12882 0.50000 0 0 0
114 0.00000 97.99485 0.00000 0 0 0
115 0.00000 98.86087 0.50000 0 0 0
116 0.00000 99.72690 0.00000 0 0 0
117 0.00000 100.59292 0.50000 0 0 0
118 0.00000 101.45895 0.00000 0 0 0
119 0.00000 102.32497 0.50000 0 0 0
120 0.00000 103.19100 0.00000 0 0 0
121 0.00000 104.05702 0.50000 0 0 0
122 0.00000 104.92305 0.00000 0 0 0
123 0.00000 105.78907 0.50000 0 0 0
124 0.00000 106.65510 0.00000 0 0 0
125 0.00000 107.52112 0.50000 0 0 0
126 0.00000 108.38715 0.00000 0 0 0
127 0.00000 109.25318 0.50000 0 0 0
128 0.00000 110.11920 0.00000 0 0 0
129 0.00000 110.98523 0.50000 0 0 0
130 0.00000 111.85125 0.00000 0 0 0
131 0.00000 112.71728 0.50000 0 0 0
132 0.00000 113.58330 0.00000 0 0 0
133 0.00000 114.44933 0.50000 0 0 0
134 0.00000 115.31535 0.00000 0 0 0
135 0.00000 116.18138 0.50000 0 0 0
136 0.00000 117.04740 0.00000 0 0 0
137 0.00000 117.91343 0.50000 0 0 0
138 0.00000 118.77945 0.00000 0 0 0
139 0.00000 119.64548 0.50000 0 0 0
140 0.00000 120.51151 0.00000 0 0 0
141 0.00000 121.37753 0.50000 0 0 0
142 0.00000 122.24356 0.00000 0 0 0
143 0.00000 123.10958 0.50000 0 0 0
144 0.00000 123.97561 0.00000 0 0 0
145 0.00000 124.84163 0.50000 0 0 0
146 0.00000 125.70766 0.00000 0 0 0
147 0.00000 126.57368 0.50000 0 0 0
148 0.00000 127.43971 0.00000 0 0 0
149 0.00000 128.30573 0.50000 0 0 0
150 0.00000 129.17176 0.00000 0 0 0
151 0.00000 130.03779 0.50000 0 0 0
152 0.00000 130.90381 0.00000 0 0 0
153 0.00000 131.76984 0.50000 0 0 0
154 0.00000 132.63586 0.00000 0 0 0
155 0.00000 133.50189 0.50000 0 0 0
156 0.00000 134.36791 0.00000 0 0 0
157 0.00000 135.23394 0.50000 0 0 0
158 0.00000 136.09996 0.00000 0 0 0
159 0.00000 136.96599 0.50000 0 0 0
160 0.00000 137.83201 0.00000 0 0 0
161 0.00000 138.69804 0.50000 0 0 0
162 0.00000 139.56406 0.00000 0 0 0
163 0.00000 140.43009 0.50000 0 0 0
164 0.00000 141.29612 0.00000 0 0 0
165 0.00000 142.16214 0.50000 0 0 0
166 0.00000 143.02817 0.00000 0 0 0
167 0.00000 143.89419 0.50000 0 0 0
168 0.00000 144.76022 0.00000 0 0 0
169 0.00000 145.62624 0.50000 0 0 0
170 0.00000 146.49227 0.00000 0 0 0
171 0.00000 147.35829 0.50000 0 0 0
172 0.00000 148.22432 0.00000 0 0 0
173 0.00000 149.09034 0.50000 0 0 0
174 0.00000 149.95637 0.00000 0 0 0
175 0.00000 150.82239 0.50000 0 0 0
176 0.00000 151.68842 0.00000 0 0 0
177 0.00000 152.55445 0.50000 0 0 0
178 0.00000 153.42047 0.00000 0 0 0
179 0.00000 154.28650 0.50000 0 0 0
180 0.00000 155.15252 0.00000 0 0 0
181 0.00000 156.01855 0.50000 0 0 0
182 0.00000 156.88457 0.00000 0 0 0
183 0.00000 157.75060 0.50000 0 0 0
184 0.00000 158.61662 0.00000 0 0 0
185 0.00000 159.48265 0.50000 0 0 0
186 0.00000 160.34867 0.00000 0 0 0
187 0.00000 161.21470 0.50000 0 0 0
188 0.00000 162.08073 0.00000 0 0 0
189 0.00000 162.94675 0.50000 0 0 0
190 0.00000 163.81278 0.00000 0 0 0
191 0.00000 164.67880 0.50000 0 0 0
192 0.00000 165.54483 0.00000 0 0 0
193 0.00000 166.41085 0.50000 0 0 0
194 0.00000 167.27688 0.00000 0 0 0
195 0.00000 168.14290 0.50000 0 0 0
196 0.00000 169.00893 0.00000 0 0 0
197 0.00000 169.87495 0.50000 0 0 0
198 0.00000 170.74098 0.00000 0 0 0
199 0.00000 171.60700 0.50000 0 0 0
200 0.00000 172.47303 0.00000 0 0 0
ITEM: TIMESTEP
1000
ITEM: NUMBER OF ATOMS
200
ITEM: BOX BOUNDS pp pp pp
-1.0000000000000000e+03 1.0000000000000000e+03
-1.0000000000000000e+03 1.0000000000000000e+03
-1.0000000000000000e+03 1.0000000000000000e+03
ITEM: ATOMS id x y z ix iy iz
1 2.28656 4.62543 1.26913 0 0 0
2 1.53639 4.09995 0.77737 0 0 0
3 1.27628 5.04916 0.46145 0 0 0
4 0.28836 5.00164 0.39811 0 0 0
5 -0.59351 5.20820 0.62180 0 0 0
6 -1.14684 5.98121 0.42412 0 0 0
7 -1.48440 6.87263 0.25359 0 0 0
8 -1.77867 7.77529 0.56049 0 0 0
9 -2.27886 8.54796 0.33538 0 0 0
10 -2.62048 9.45216 0.29476 0 0 0
11 -2.77279 10.29996 0.76546 0 0 0
12 -2.18253 11.08723 0.85797 0 0 0
13 -1.80272 11.77449 0.30126 0 0 0
14 -1.36630 12.42269 -0.30591 0 0 0
15 -0.98853 13.31439 -0.43118 0 0 0
16 -0.67502 14.17843 -0.12579 0 0 0
17 -1.38686 14.99066 -0.25586 0 0 0
18 -1.11578 15.90186 -0.52575 0 0 0
19 -0.36656 16.52562 -0.83100 0 0 0
20 -0.37973 17.47866 -0.50192 0 0 0
21 -1.14793 17.91641 -0.81621 0 0 0
22 -1.79641 18.64727 -0.51231 0 0 0
23 -1.25122 19.49009 -0.75205 0 0 0
24 -1.40140 20.50518 -1.04004 0 0 0
25 -1.04749 21.39095 -1.36919 0 0 0
26 -0.95609 22.42925 -1.45961 0 0 0
27 -0.83777 23.33813 -1.06323 0 0 0
28 -0.67517 24.32481 -1.16094 0 0 0
29 -0.00772 24.90869 -0.81287 0 0 0
30 -0.09044 25.64217 -0.08959 0 0 0
31 -0.46168 26.49987 0.23013 0 0 0
32 -0.05564 27.33096 0.18803 0 0 0
33 -0.06114 28.26221 -0.08152 0 0 0
34 -0.56400 28.99599 -0.40553 0 0 0
35 -0.17787 29.90459 -0.28459 0 0 0
36 0.14330 30.82354 -0.26998 0 0 0
37 0.23605 31.84345 -0.12798 0 0 0
38 0.21822 32.80039 -0.21830 0 0 0
39 0.27691 33.52443 -0.87335 0 0 0
40 0.19895 34.56159 -0.92679 0 0 0
41 -0.08237 35.46630 -0.65026 0 0 0
42 -0.93745 36.13564 -0.88002 0 0 0
43 -1.68593 36.52353 -0.36441 0 0 0
44 -1.53182 37.48408 -0.15784 0 0 0
45 -1.79977 38.39815 -0.03187 0 0 0
46 -1.76386 39.41697 0.18493 0 0 0
47 -1.65407 40.47700 0.32831 0 0 0
48 -1.45565 41.28815 -0.13432 0 0 0
49 -1.08455 42.12088 -0.35422 0 0 0
50 -0.55480 42.90143 -0.25785 0 0 0
51 -1.06907 43.58948 -0.63337 0 0 0
52 -0.64748 44.52975 -0.35237 0 0 0
53 -0.73716 45.48808 -0.16235 0 0 0
54 -0.64816 46.47670 -0.16605 0 0 0
55 -0.20520 47.36546 -0.04283 0 0 0
56 -0.10757 48.29215 -0.31499 0 0 0
57 -0.41271 49.24875 -0.32014 0 0 0
58 -0.17376 50.23848 -0.48457 0 0 0
59 -0.87720 50.87580 -0.46681 0 0 0
60 -1.34395 51.61817 -0.10184 0 0 0
61 -1.45542 52.50175 0.22736 0 0 0
62 -1.14966 53.41400 0.52917 0 0 0
63 -0.89036 54.41537 0.52174 0 0 0
64 -0.67414 55.26526 0.94912 0 0 0
65 -0.69005 56.26380 0.74328 0 0 0
66 -0.77433 57.22093 0.60803 0 0 0
67 -0.69228 58.21100 0.52829 0 0 0
68 -0.81075 59.05084 0.09397 0 0 0
69 -0.87288 60.07152 0.01361 0 0 0
70 -0.56263 60.87738 0.42066 0 0 0
71 -1.38208 61.25225 0.67499 0 0 0
72 -1.78673 62.16601 0.51075 0 0 0
73 -1.50621 63.03373 0.84676 0 0 0
74 -1.61846 63.98919 0.91358 0 0 0
75 -1.48475 64.92085 0.80012 0 0 0
76 -1.27528 65.86488 0.67317 0 0 0
77 -0.85870 66.87602 0.62325 0 0 0
78 -0.53551 67.74634 0.83958 0 0 0
79 -0.67644 68.70862 0.88664 0 0 0
80 -0.53943 69.63760 0.45294 0 0 0
81 -0.63717 70.59576 0.81537 0 0 0
82 -0.93045 71.42791 1.42416 0 0 0
83 -0.84040 72.44202 1.36221 0 0 0
84 -0.34498 73.27823 1.20166 0 0 0
85 0.24371 74.01788 1.18484 0 0 0
86 0.23947 74.30914 2.11659 0 0 0
87 0.51175 75.16706 2.48455 0 0 0
88 0.78716 76.18585 2.26903 0 0 0
89 1.40326 76.54411 1.72431 0 0 0
90 1.88888 76.90325 0.96466 0 0 0
91 1.77085 77.82106 0.58002 0 0 0
92 2.18084 78.64963 0.17861 0 0 0
93 2.21225 79.62605 0.13594 0 0 0
94 2.03013 80.60847 -0.04126 0 0 0
95 1.68713 81.50516 -0.23220 0 0 0
96 1.52513 82.47864 -0.09170 0 0 0
97 0.83392 83.10306 0.09746 0 0 0
98 0.87023 84.12604 -0.08166 0 0 0
99 0.43805 85.06394 -0.07029 0 0 0
100 -0.05659 85.77368 0.35767 0 0 0
101 -0.29225 86.67959 0.66706 0 0 0
102 -0.76876 87.45885 1.00299 0 0 0
103 -0.95262 88.46848 1.04511 0 0 0
104 -0.51429 89.24907 1.37349 0 0 0
105 -0.67448 90.24320 1.50606 0 0 0
106 -0.59721 91.24632 1.78911 0 0 0
107 -0.29276 92.23427 1.79499 0 0 0
108 -0.15203 93.20875 1.58670 0 0 0
109 -0.50262 94.19879 1.35055 0 0 0
110 -0.37220 95.13177 1.61973 0 0 0
111 -0.07078 95.97984 1.28331 0 0 0
112 0.00029 96.83818 0.68785 0 0 0
113 -0.25716 97.64187 0.21437 0 0 0
114 -0.41084 98.57578 0.42840 0 0 0
115 -0.44298 99.49829 0.06976 0 0 0
116 -0.65478 100.44139 -0.20682 0 0 0
117 0.08132 100.98140 -0.56381 0 0 0
118 0.34356 101.92340 -0.56857 0 0 0
119 0.92449 102.59336 -0.15645 0 0 0
120 0.75628 103.58055 -0.09886 0 0 0
121 0.67926 104.29397 0.57230 0 0 0
122 0.65641 105.22261 0.65335 0 0 0
123 0.29226 106.16343 0.84566 0 0 0
124 0.75314 107.09642 0.67491 0 0 0
125 0.65385 108.09200 0.87945 0 0 0
126 0.44642 109.06188 0.99525 0 0 0
127 0.57985 110.02100 1.35179 0 0 0
128 0.01984 110.81272 0.96742 0 0 0
129 0.15800 111.49004 0.36370 0 0 0
130 -0.03725 112.49315 0.32407 0 0 0
131 0.03049 113.41923 0.13006 0 0 0
132 -0.62809 114.12112 0.16575 0 0 0
133 -0.92706 115.05934 0.31528 0 0 0
134 -1.04100 115.72376 -0.36505 0 0 0
135 -1.40749 116.46526 0.24922 0 0 0
136 -1.41714 117.47188 0.10270 0 0 0
137 -0.51629 117.81744 0.07080 0 0 0
138 -0.63061 118.75947 0.09714 0 0 0
139 -0.63694 119.70780 -0.22455 0 0 0
140 -0.69056 120.67079 -0.26753 0 0 0
141 -1.13671 121.59239 -0.31459 0 0 0
142 -1.38859 122.37519 0.17845 0 0 0
143 -1.45815 123.34409 0.41229 0 0 0
144 -0.91540 124.09986 0.24847 0 0 0
145 -0.99499 124.95105 0.82829 0 0 0
146 -0.32624 125.60598 1.02682 0 0 0
147 -0.32465 126.30853 0.31533 0 0 0
148 -0.20765 127.26736 -0.01826 0 0 0
149 0.23129 127.51813 -0.83186 0 0 0
150 0.18034 128.42095 -0.44008 0 0 0
151 0.21977 129.41393 -0.29634 0 0 0
152 0.26778 130.38526 -0.17649 0 0 0
153 0.50315 131.33527 -0.38302 0 0 0
154 0.56868 132.24547 -0.77804 0 0 0
155 0.29332 133.06338 -0.31371 0 0 0
156 0.41882 134.08977 -0.11538 0 0 0
157 0.41880 135.06443 -0.10701 0 0 0
158 -0.53124 135.39884 0.00278 0 0 0
159 -0.63887 136.42221 -0.06910 0 0 0
160 -1.05496 137.30266 -0.16286 0 0 0
161 -0.79862 138.10463 -0.63834 0 0 0
162 -0.77079 139.23494 -0.55992 0 0 0
163 -0.39202 139.98139 -0.00924 0 0 0
164 -0.04049 140.91939 0.32017 0 0 0
165 -0.16404 141.95013 0.61603 0 0 0
166 0.05147 142.73804 0.17749 0 0 0
167 0.13872 143.69703 0.23403 0 0 0
168 0.49641 144.59092 0.16235 0 0 0
169 0.20749 145.47833 -0.23372 0 0 0
170 0.57089 146.35268 -0.14989 0 0 0
171 0.39021 147.34154 -0.04602 0 0 0
172 0.29247 148.28375 0.27275 0 0 0
173 0.06767 149.25707 0.28905 0 0 0
174 0.08947 150.24464 0.35303 0 0 0
175 -0.04553 151.22596 0.15988 0 0 0
176 -0.64891 151.75718 0.73170 0 0 0
177 -0.96876 152.66778 0.91050 0 0 0
178 -0.43752 153.54052 1.06885 0 0 0
179 0.26512 154.11494 1.49763 0 0 0
180 0.49534 154.91645 0.88430 0 0 0
181 0.60370 155.56428 0.15909 0 0 0
182 1.06089 156.41228 -0.16328 0 0 0
183 0.69907 157.25963 -0.53976 0 0 0
184 0.16980 158.01646 -0.03583 0 0 0
185 0.07323 158.96123 -0.37942 0 0 0
186 0.08569 159.73878 -0.98214 0 0 0
187 -0.32785 160.37181 -0.34531 0 0 0
188 -0.30758 160.56578 0.63777 0 0 0
189 -0.72523 161.29151 0.18506 0 0 0
190 -1.24332 161.99819 -0.13239 0 0 0
191 -1.97378 162.72076 -0.32220 0 0 0
192 -1.92290 163.26526 0.37605 0 0 0
193 -1.36491 164.12916 0.30825 0 0 0
194 -1.30003 165.13770 0.24444 0 0 0
195 -1.16399 166.06908 0.54495 0 0 0
196 -1.76635 166.11234 1.38225 0 0 0
197 -2.64035 165.75614 1.60494 0 0 0
198 -3.39129 166.33611 1.56309 0 0 0
199 -3.37482 166.92697 2.32452 0 0 0
200 -3.64565 167.52275 1.65721 0 0 0
ITEM: TIMESTEP
2000
ITEM: NUMBER OF ATOMS
200
ITEM: BOX BOUNDS pp pp pp
-1.0000000000000000e+03 1.0000000000000000e+03
-1.0000000000000000e+03 1.0000000000000000e+03
-1.0000000000000000e+03 1.0000000000000000e+03
ITEM: ATOMS id x y z ix iy iz
1 3.44524 6.01296 -0.00853 0 0 0
2 3.29707 6.82106 -0.60575 0 0 0
3 3.75383 7.67995 -0.64409 0 0 0
4 2.84009 7.98558 -0.43771 0 0 0
5 2.89494 7.45137 0.37009 0 0 0
6 1.89825 7.59762 0.39368 0 0 0
7 1.49461 8.29357 0.89226 0 0 0
8 1.08505 9.11362 1.34447 0 0 0
9 0.05932 9.48324 1.20607 0 0 0
10 -0.28148 10.08760 0.47606 0 0 0
11 0.05374 10.98921 0.56609 0 0 0
12 -0.80876 11.43001 0.76840 0 0 0
13 -0.45759 12.32333 0.78739 0 0 0
14 -0.51727 13.31772 0.56870 0 0 0
15 -0.64698 14.38050 0.66217 0 0 0
16 -0.28741 15.27305 0.32293 0 0 0
17 -0.83663 15.32670 -0.51229 0 0 0
18 -1.13775 16.25456 -0.65278 0 0 0
19 -0.98930 17.22269 -0.81091 0 0 0
20 -0.92645 18.23414 -0.70361 0 0 0
21 -0.71847 18.90740 -0.05370 0 0 0
22 -0.83050 19.69017 -0.57332 0 0 0
23 -0.34034 20.58991 -0.60669 0 0 0
24 -0.50140 21.49635 -0.84531 0 0 0
25 -0.56934 22.43510 -1.21996 0 0 0
26 -0.48476 23.41176 -1.26693 0 0 0
27 -0.27816 24.13508 -0.58296 0 0 0
28 0.23143 25.03195 -0.49413 0 0 0
29 -0.26702 25.84306 -0.20750 0 0 0
30 -0.64569 26.72575 0.08252 0 0 0
31 -0.64128 27.26070 -0.72534 0 0 0
32 -0.02935 27.94236 -0.49423 0 0 0
33 0.12434 28.87845 -0.52433 0 0 0
34 0.24100 29.81582 -0.73088 0 0 0
35 -0.21978 30.55897 -0.29532 0 0 0
36 0.18433 31.43407 0.04879 0 0 0
37 -0.10494 32.49922 -0.04344 0 0 0
38 -0.52319 33.34306 0.20821 0 0 0
39 0.32696 33.94419 0.22485 0 0 0
40 0.60780 34.80916 0.56249 0 0 0
41 0.28037 35.70917 0.14778 0 0 0
42 0.73652 36.05582 -0.60860 0 0 0
43 0.63016 37.07923 -0.71545 0 0 0
44 0.73975 37.98651 -0.87424 0 0 0
45 0.89695 38.92391 -1.25264 0 0 0
46 0.25259 39.61981 -1.12433 0 0 0
47 -0.11138 40.47517 -0.75287 0 0 0
48 0.06254 41.55172 -0.83341 0 0 0
49 0.59751 42.33181 -0.49007 0 0 0
50 0.51076 43.10407 -1.06215 0 0 0
51 -0.18838 43.68045 -0.82041 0 0 0
52 -0.08448 44.58151 -1.23318 0 0 0
53 0.08564 45.51347 -0.80383 0 0 0
54 0.28673 46.40748 -0.26360 0 0 0
55 0.13258 47.32830 0.12279 0 0 0
56 0.28347 48.21823 -0.10724 0 0 0
57 0.41005 49.13055 0.39565 0 0 0
58 0.34969 50.12403 -0.03166 0 0 0
59 -0.34358 50.89891 0.21722 0 0 0
60 -0.95424 51.77419 0.24635 0 0 0
61 -0.95473 52.76870 0.65925 0 0 0
62 -1.71989 53.31416 0.63425 0 0 0
63 -1.40010 54.10488 1.23993 0 0 0
64 -1.59547 54.96014 0.86775 0 0 0
65 -2.10375 55.83226 0.85792 0 0 0
66 -2.12355 56.66253 0.39224 0 0 0
67 -2.22520 57.59336 0.10538 0 0 0
68 -1.72484 58.44978 0.26798 0 0 0
69 -1.70287 59.42064 0.16377 0 0 0
70 -1.43738 60.29088 0.20070 0 0 0
71 -1.17323 61.32834 0.17413 0 0 0
72 -0.67567 62.14321 0.32861 0 0 0
73 -1.07989 63.06373 0.33668 0 0 0
74 -1.14010 64.10035 0.35961 0 0 0
75 -1.13276 65.07480 -0.03734 0 0 0
76 -1.06523 66.01414 -0.04437 0 0 0
77 -0.68073 66.84455 -0.43308 0 0 0
78 -0.57668 67.74915 0.13792 0 0 0
79 -0.76467 68.65969 0.52663 0 0 0
80 -0.60937 69.57590 0.85719 0 0 0
81 -1.15292 70.25644 1.21779 0 0 0
82 -1.52149 71.22096 1.28939 0 0 0
83 -1.90182 72.06031 0.95456 0 0 0
84 -1.58566 72.79742 0.40082 0 0 0
85 -1.37184 73.72005 0.29468 0 0 0
86 -0.85550 74.42154 -0.18375 0 0 0
87 -0.62385 75.29301 -0.46106 0 0 0
88 -0.39641 76.25636 -0.47820 0 0 0
89 -0.75304 77.17726 -0.48188 0 0 0
90 -0.84271 78.04154 -0.99505 0 0 0
91 0.00435 78.57072 -0.92127 0 0 0
92 0.14348 79.49377 -1.28210 0 0 0
93 -0.33162 80.37802 -1.41877 0 0 0
94 0.17519 81.09117 -0.86428 0 0 0
95 -0.01575 82.02158 -0.65738 0 0 0
96 -0.59856 82.87611 -0.78036 0 0 0
97 -0.29299 83.89897 -0.59662 0 0 0
98 -0.26475 84.88318 -0.74328 0 0 0
99 -0.70368 85.68973 -0.53072 0 0 0
100 -0.80911 86.63308 -0.74601 0 0 0
101 -0.43404 87.46226 -0.38171 0 0 0
102 -0.24459 88.05529 0.43514 0 0 0
103 -0.53465 88.86381 -0.20475 0 0 0
104 -0.28006 89.78987 -0.21434 0 0 0
105 -0.63218 90.69293 0.02841 0 0 0
106 -0.49810 91.62802 0.00236 0 0 0
107 -0.28735 92.33465 0.67664 0 0 0
108 -0.27542 93.27428 0.75602 0 0 0
109 -0.18174 94.19747 0.45898 0 0 0
110 -0.49536 94.69934 1.21958 0 0 0
111 -0.50245 95.69036 1.15756 0 0 0
112 -0.40279 96.71392 0.67059 0 0 0
113 -0.01023 97.63446 0.42001 0 0 0
114 -0.56575 98.47588 0.19958 0 0 0
115 -1.20600 98.93511 -0.39637 0 0 0
116 -1.21717 99.82355 -0.82833 0 0 0
117 -1.08211 100.76089 -0.54072 0 0 0
118 -0.34766 101.09950 0.05043 0 0 0
119 -0.48295 102.02452 0.29201 0 0 0
120 0.00025 102.91922 0.17300 0 0 0
121 -0.72099 103.56004 -0.14146 0 0 0
122 -1.09915 104.40314 0.01495 0 0 0
123 -1.07671 105.37175 0.11151 0 0 0
124 -0.97449 106.47232 -0.05998 0 0 0
125 -0.84017 107.51536 0.01958 0 0 0
126 -0.33509 108.06956 0.72713 0 0 0
127 0.15181 108.85606 0.60044 0 0 0
128 0.07642 109.86791 0.95163 0 0 0
129 -0.44140 110.67163 0.92592 0 0 0
130 -0.36263 111.60422 1.17014 0 0 0
131 0.00694 112.31885 1.69036 0 0 0
132 -0.02333 113.25290 1.58107 0 0 0
133 0.41617 114.19158 1.64327 0 0 0
134 0.06407 115.03254 1.28117 0 0 0
135 0.24934 115.99535 1.04870 0 0 0
136 0.58573 116.91444 1.13912 0 0 0
137 0.41974 117.79562 0.69653 0 0 0
138 0.08111 118.73927 0.49006 0 0 0
139 0.54424 119.56464 0.37506 0 0 0
140 1.04919 120.47517 0.31639 0 0 0
141 1.24227 121.39602 0.66749 0 0 0
142 0.61417 122.17499 0.62389 0 0 0
143 0.35581 123.07793 0.29090 0 0 0
144 0.04473 123.90872 0.66019 0 0 0
145 -0.22967 124.93275 0.72710 0 0 0
146 0.15205 125.82577 0.50115 0 0 0
147 0.25675 126.80788 0.59071 0 0 0
148 0.59583 127.76115 0.68206 0 0 0
149 1.04163 128.59832 0.97978 0 0 0
150 1.59473 129.37800 0.88400 0 0 0
151 1.49937 130.02682 0.17608 0 0 0
152 1.89619 130.45977 -0.56742 0 0 0
153 1.53791 131.38197 -0.68715 0 0 0
154 1.31554 132.27435 -0.33098 0 0 0
155 1.34539 133.26296 -0.47055 0 0 0
156 0.86721 134.06481 -0.11724 0 0 0
157 0.63736 135.03953 0.18778 0 0 0
158 0.92375 135.77341 -0.38429 0 0 0
159 1.30738 136.72118 -0.14874 0 0 0
160 1.42597 137.73523 -0.14989 0 0 0
161 1.52939 138.58074 0.35410 0 0 0
162 1.83919 139.53689 0.63869 0 0 0
163 1.48737 140.47088 0.58926 0 0 0
164 0.63169 140.87179 0.47290 0 0 0
165 1.06542 141.67950 0.14335 0 0 0
166 1.02501 142.57311 -0.15563 0 0 0
167 1.45753 143.39408 -0.06955 0 0 0
168 0.54527 143.80353 -0.37424 0 0 0
169 0.61861 144.62511 0.25250 0 0 0
170 0.71093 145.63403 0.16750 0 0 0
171 0.63423 146.28184 0.83060 0 0 0
172 0.99876 147.23698 0.76184 0 0 0
173 1.25254 147.83156 1.63614 0 0 0
174 1.48338 148.78256 1.86848 0 0 0
175 1.45407 149.68151 2.36689 0 0 0
176 0.45208 150.08219 2.35975 0 0 0
177 -0.12621 150.37843 3.18356 0 0 0
178 -0.62450 151.07209 3.64468 0 0 0
179 -1.09639 151.87477 3.59192 0 0 0
180 -1.15390 152.83829 3.22388 0 0 0
181 -1.10236 153.59831 2.64340 0 0 0
182 -1.59948 154.44568 2.59228 0 0 0
183 -1.05415 155.30613 2.83840 0 0 0
184 -0.98754 156.28930 2.65813 0 0 0
185 -0.89969 157.16128 2.99058 0 0 0
186 -1.57711 157.92663 3.02563 0 0 0
187 -1.72664 158.83924 2.49993 0 0 0
188 -1.88463 159.81104 2.52420 0 0 0
189 -1.50784 160.58423 2.17192 0 0 0
190 -1.01006 161.42109 2.31731 0 0 0
191 -1.14865 162.40076 2.46910 0 0 0
192 -0.51789 163.04847 2.02224 0 0 0
193 -0.04834 163.59909 1.32277 0 0 0
194 -0.40676 164.41570 1.15919 0 0 0
195 -1.01798 164.79722 1.83859 0 0 0
196 -1.94911 164.71154 1.52362 0 0 0
197 -2.54621 164.92003 2.19639 0 0 0
198 -2.83358 165.55967 2.88650 0 0 0
199 -2.02982 165.98649 2.71119 0 0 0
200 -1.52132 166.39956 2.02016 0 0 0
ITEM: TIMESTEP
3000
ITEM: NUMBER OF ATOMS
200
ITEM: BOX BOUNDS pp pp pp
-1.0000000000000000e+03 1.0000000000000000e+03
-1.0000000000000000e+03 1.0000000000000000e+03
-1.0000000000000000e+03 1.0000000000000000e+03
ITEM: ATOMS id x y z ix iy iz
1 0.23915 9.24411 -1.45505 0 0 0
2 0.60725 8.39078 -1.81630 0 0 0
3 1.34617 8.02019 -1.39916 0 0 0
4 2.01116 7.89965 -0.72060 0 0 0
5 1.58581 8.84237 -0.83988 0 0 0
6 1.83102 9.67614 -0.33819 0 0 0
7 2.20860 10.63641 -0.23261 0 0 0
8 1.94565 11.54307 -0.01322 0 0 0
9 1.89783 12.49116 -0.22052 0 0 0
10 1.40369 13.22437 -0.51402 0 0 0
11 1.06818 14.24523 -0.54684 0 0 0
12 1.74040 14.61203 -0.04260 0 0 0
13 1.57132 15.41562 0.41803 0 0 0
14 0.93297 15.96202 0.98618 0 0 0
15 0.42964 16.69558 0.57569 0 0 0
16 0.14712 17.58329 0.23296 0 0 0
17 -0.25674 18.36423 -0.19179 0 0 0
18 -0.59964 19.41505 -0.14837 0 0 0
19 0.09801 20.04210 -0.06327 0 0 0
20 -0.20971 20.88479 -0.30649 0 0 0
21 0.14353 21.81423 -0.37962 0 0 0
22 0.30450 22.79622 -0.51278 0 0 0
23 0.98439 22.67797 0.23160 0 0 0
24 1.46312 23.09263 0.90840 0 0 0
25 1.95531 23.55631 1.57429 0 0 0
26 1.81138 24.63263 1.60936 0 0 0
27 2.68712 25.04665 1.61187 0 0 0
28 3.16914 25.84009 1.86305 0 0 0
29 2.61450 26.67505 1.81349 0 0 0
30 1.76940 27.17309 1.38909 0 0 0
31 1.44993 27.98908 0.98852 0 0 0
32 2.17882 28.59346 1.24090 0 0 0
33 1.76787 29.45312 1.07740 0 0 0
34 1.65915 30.44501 1.01617 0 0 0
35 1.72653 31.01435 0.20722 0 0 0
36 1.48140 31.93938 0.50026 0 0 0
37 0.89942 32.68183 0.12003 0 0 0
38 0.67343 33.72126 0.19434 0 0 0
39 1.00225 34.59874 0.09378 0 0 0
40 0.84453 35.56003 0.30642 0 0 0
41 0.32716 36.40195 0.42790 0 0 0
42 0.24331 37.33980 0.31206 0 0 0
43 -0.17328 38.25753 0.48224 0 0 0
44 0.11155 39.12188 0.79637 0 0 0
45 -0.00037 40.04115 0.50865 0 0 0
46 0.82364 40.47561 0.22564 0 0 0
47 0.96531 41.16370 -0.53458 0 0 0
48 1.07094 42.12931 -0.31414 0 0 0
49 0.59737 42.95497 -0.25952 0 0 0
50 -0.26278 43.49940 -0.24636 0 0 0
51 -0.04459 44.40904 -0.20145 0 0 0
52 -0.17588 45.34121 -0.50906 0 0 0
53 -0.49366 46.22801 -0.28577 0 0 0
54 -0.12832 47.18033 -0.24904 0 0 0
55 -0.40267 48.07966 -0.21744 0 0 0
56 -0.34795 49.00176 -0.58468 0 0 0
57 -0.56924 50.01515 -0.72797 0 0 0
58 -0.52409 51.01572 -0.62462 0 0 0
59 -0.17011 51.88015 -0.21143 0 0 0
60 -0.58291 52.85089 0.02767 0 0 0
61 -0.54611 53.56451 -0.58483 0 0 0
62 -0.50177 54.61530 -0.56362 0 0 0
63 -1.07150 55.36689 -0.31801 0 0 0
64 -1.72915 56.02411 -0.33443 0 0 0
65 -1.02780 56.56691 -0.61027 0 0 0
66 -0.78104 57.40115 -1.04708 0 0 0
67 -0.62365 58.29699 -0.53791 0 0 0
68 -0.79222 59.29087 -0.26540 0 0 0
69 -1.28830 59.99001 -0.68059 0 0 0
70 -1.12111 60.94360 -0.73071 0 0 0
71 -0.81564 61.88740 -0.82301 0 0 0
72 -0.11634 62.54839 -1.02267 0 0 0
73 0.15017 63.58427 -0.78124 0 0 0
74 0.07593 64.45181 -0.39299 0 0 0
75 -0.52565 64.78936 0.30289 0 0 0
76 -0.63144 65.75340 0.43405 0 0 0
77 -0.41184 66.69734 0.24691 0 0 0
78 0.29631 67.26012 0.59121 0 0 0
79 0.40658 68.19438 0.77235 0 0 0
80 0.22935 69.11827 0.77557 0 0 0
81 -0.08880 70.00255 0.90184 0 0 0
82 0.11959 70.94791 0.75733 0 0 0
83 0.11563 71.89203 0.85399 0 0 0
84 -0.28917 72.80163 0.78616 0 0 0
85 -0.54095 73.66769 0.31909 0 0 0
86 -0.66427 74.56374 0.76869 0 0 0
87 -0.87758 75.48499 0.62988 0 0 0
88 -1.00925 76.28459 0.14596 0 0 0
89 -0.94922 77.01574 -0.55507 0 0 0
90 -0.51580 77.73058 -1.09984 0 0 0
91 -0.27109 78.44947 -1.65736 0 0 0
92 -0.26347 79.47086 -1.55183 0 0 0
93 -0.43958 80.35876 -1.20142 0 0 0
94 -0.25447 81.24861 -0.81138 0 0 0
95 -0.91347 81.86530 -0.36969 0 0 0
96 -1.34583 82.75384 -0.17278 0 0 0
97 -1.80323 83.65104 -0.49354 0 0 0
98 -2.16607 84.55489 -0.65192 0 0 0
99 -1.88034 85.42324 -0.28539 0 0 0
100 -1.61049 86.35528 -0.00508 0 0 0
101 -0.71675 86.58563 -0.38380 0 0 0
102 -0.46530 87.53618 -0.18517 0 0 0
103 -0.56965 88.26453 0.45288 0 0 0
104 -0.56934 89.25731 0.10477 0 0 0
105 -0.64237 90.32385 0.14748 0 0 0
106 -0.96312 90.97167 0.74242 0 0 0
107 -0.51724 91.90609 0.72587 0 0 0
108 -0.16774 92.89473 0.57749 0 0 0
109 0.06697 93.78613 0.90799 0 0 0
110 0.28564 94.71193 0.78084 0 0 0
111 -0.13027 95.60080 0.82379 0 0 0
112 0.13103 96.60855 0.64813 0 0 0
113 0.40972 97.47622 0.78150 0 0 0
114 0.64424 98.39032 0.50534 0 0 0
115 1.21835 99.25358 0.54752 0 0 0
116 1.39621 100.21341 0.43194 0 0 0
117 0.95084 100.90161 0.90209 0 0 0
118 0.64132 101.82491 0.79641 0 0 0
119 0.17501 102.59227 1.10177 0 0 0
120 0.35518 103.45582 1.48512 0 0 0
121 1.15884 103.87740 1.12260 0 0 0
122 0.48662 104.79351 1.12526 0 0 0
123 1.16817 105.50715 1.11030 0 0 0
124 0.89419 106.31984 0.78115 0 0 0
125 0.52652 107.17554 1.03430 0 0 0
126 0.76650 108.09212 1.29641 0 0 0
127 1.02661 108.75336 1.95067 0 0 0
128 1.22640 109.59250 1.52305 0 0 0
129 1.07570 110.69593 1.41041 0 0 0
130 0.85409 111.26582 0.56018 0 0 0
131 1.36347 112.16183 0.46946 0 0 0
132 1.98454 112.94649 0.44989 0 0 0
133 2.30718 113.75336 -0.03530 0 0 0
134 2.10064 114.58745 0.34828 0 0 0
135 1.63297 115.33441 0.71354 0 0 0
136 1.94917 116.24262 0.53384 0 0 0
137 2.11988 117.23707 0.90223 0 0 0
138 2.37449 118.08189 1.09696 0 0 0
139 2.26881 118.87557 1.63138 0 0 0
140 2.04733 119.80179 1.82246 0 0 0
141 1.54851 120.43709 1.21318 0 0 0
142 1.48467 121.31697 0.79774 0 0 0
143 1.93238 122.17907 0.51199 0 0 0
144 1.88534 123.08643 1.00432 0 0 0
145 1.57325 123.99833 0.91664 0 0 0
146 1.71583 124.86921 1.18688 0 0 0
147 1.38213 125.84803 1.18269 0 0 0
148 1.27036 126.84543 0.93526 0 0 0
149 1.05563 127.69427 1.36580 0 0 0
150 1.19230 128.66215 1.24453 0 0 0
151 1.39104 129.62279 1.17858 0 0 0
152 1.12024 130.57111 0.97355 0 0 0
153 0.45482 131.32960 1.34303 0 0 0
154 0.09377 132.27598 1.06281 0 0 0
155 0.04833 133.23611 0.82547 0 0 0
156 -0.53697 133.99605 0.93775 0 0 0
157 -1.15509 134.75034 0.99671 0 0 0
158 -1.26575 135.48677 0.37626 0 0 0
159 -1.05186 136.23526 -0.22047 0 0 0
160 -0.60183 136.93722 -0.70108 0 0 0
161 -0.29629 137.93175 -0.80161 0 0 0
162 -0.26218 138.73568 -1.30442 0 0 0
163 -0.41268 139.46780 -0.67984 0 0 0
164 0.09037 140.02227 -0.01051 0 0 0
165 0.46870 140.97606 -0.13883 0 0 0
166 0.60447 141.94909 0.03015 0 0 0
167 0.12652 142.75758 0.56407 0 0 0
168 0.28358 143.78205 0.60239 0 0 0
169 -0.04585 144.65079 0.83263 0 0 0
170 -0.04162 145.62462 1.27523 0 0 0
171 -0.34892 146.35064 0.65052 0 0 0
172 0.00114 147.04272 0.02666 0 0 0
173 0.32838 147.93238 0.19975 0 0 0
174 0.23381 148.90639 0.41896 0 0 0
175 0.08706 149.90284 0.36226 0 0 0
176 -0.43420 150.71328 0.44777 0 0 0
177 0.02034 151.56518 0.20106 0 0 0
178 -0.12212 152.50348 -0.00414 0 0 0
179 0.25646 153.34913 -0.27722 0 0 0
180 -0.15139 154.21894 -0.48325 0 0 0
181 0.23579 154.44103 0.43643 0 0 0
182 0.40383 155.35823 0.80731 0 0 0
183 0.37830 156.25059 1.28202 0 0 0
184 0.92709 157.05076 1.53414 0 0 0
185 1.04115 157.98663 1.80531 0 0 0
186 0.40005 158.67251 2.16025 0 0 0
187 -0.48828 158.90350 2.43983 0 0 0
188 -0.98881 159.80864 2.38641 0 0 0
189 -1.58748 159.65198 3.13970 0 0 0
190 -2.56353 159.39618 3.29627 0 0 0
191 -2.65243 160.36033 3.04320 0 0 0
192 -2.59662 160.64810 2.11564 0 0 0
193 -2.12776 161.36688 2.67442 0 0 0
194 -1.26329 161.76620 2.69295 0 0 0
195 -0.89292 162.65978 2.61298 0 0 0
196 -0.52939 163.60582 2.58637 0 0 0
197 -0.63238 164.34984 2.03413 0 0 0
198 -0.45005 165.23878 1.42390 0 0 0
199 -0.86030 165.69164 2.16195 0 0 0
200 -0.21879 166.53457 2.33810 0 0 0
ITEM: TIMESTEP
4000
ITEM: NUMBER OF ATOMS
200
ITEM: BOX BOUNDS pp pp pp
-1.0000000000000000e+03 1.0000000000000000e+03
-1.0000000000000000e+03 1.0000000000000000e+03
-1.0000000000000000e+03 1.0000000000000000e+03
ITEM: ATOMS id x y z ix iy iz
1 0.83650 7.58322 1.45427 0 0 0
2 0.85065 8.51572 1.24879 0 0 0
3 1.13647 9.45532 1.51932 0 0 0
4 0.89101 10.41524 1.25808 0 0 0
5 1.70588 10.90874 1.21766 0 0 0
6 2.19335 10.92995 0.32369 0 0 0
7 2.75174 10.98299 -0.47110 0 0 0
8 2.85821 11.93803 -0.23736 0 0 0
9 2.13043 12.52171 -0.32773 0 0 0
10 2.32062 13.54635 -0.33492 0 0 0