bb100nuc0bl0bn0d30tot100

100 atoms
99 bonds
98 angles

1 atom types
1 bond types
1 angle types

-1000 1000 xlo xhi
-1000 1000 ylo yhi
-1000 1000 zlo zhi

Masses

1 1

Atoms

1	1	1	0.0	0.0	0.0	0	0	0
2	1	1	0.0	1.0	0.0	0	0	0
3	1	1	0.0	1.8660254037844388	0.49999999999999994	0	0	0
4	1	1	0.0	2.7320508075688776	0.0	0	0	0
5	1	1	0.0	3.5980762113533165	0.49999999999999994	0	0	0
6	1	1	0.0	4.464101615137755	0.0	0	0	0
7	1	1	0.0	5.330127018922194	0.49999999999999994	0	0	0
8	1	1	0.0	6.196152422706632	0.0	0	0	0
9	1	1	0.0	7.06217782649107	0.49999999999999994	0	0	0
10	1	1	0.0	7.928203230275509	0.0	0	0	0
11	1	1	0.0	8.794228634059948	0.49999999999999994	0	0	0
12	1	1	0.0	9.660254037844387	0.0	0	0	0
13	1	1	0.0	10.526279441628827	0.49999999999999994	0	0	0
14	1	1	0.0	11.392304845413266	0.0	0	0	0
15	1	1	0.0	12.258330249197705	0.49999999999999994	0	0	0
16	1	1	0.0	13.124355652982144	0.0	0	0	0
17	1	1	0.0	13.990381056766584	0.49999999999999994	0	0	0
18	1	1	0.0	14.856406460551023	0.0	0	0	0
19	1	1	0.0	15.722431864335462	0.49999999999999994	0	0	0
20	1	1	0.0	16.5884572681199	0.0	0	0	0
21	1	1	0.0	17.454482671904337	0.49999999999999994	0	0	0
22	1	1	0.0	18.320508075688775	0.0	0	0	0
23	1	1	0.0	19.186533479473212	0.49999999999999994	0	0	0
24	1	1	0.0	20.05255888325765	0.0	0	0	0
25	1	1	0.0	20.918584287042087	0.49999999999999994	0	0	0
26	1	1	0.0	21.784609690826525	0.0	0	0	0
27	1	1	0.0	22.650635094610962	0.49999999999999994	0	0	0
28	1	1	0.0	23.5166604983954	0.0	0	0	0
29	1	1	0.0	24.382685902179837	0.49999999999999994	0	0	0
30	1	1	0.0	25.248711305964274	0.0	0	0	0
31	1	1	0.0	26.114736709748712	0.49999999999999994	0	0	0
32	1	1	0.0	26.98076211353315	0.0	0	0	0
33	1	1	0.0	27.846787517317587	0.49999999999999994	0	0	0
34	1	1	0.0	28.712812921102024	0.0	0	0	0
35	1	1	0.0	29.578838324886462	0.49999999999999994	0	0	0
36	1	1	0.0	30.4448637286709	0.0	0	0	0
37	1	1	0.0	31.310889132455337	0.49999999999999994	0	0	0
38	1	1	0.0	32.17691453623978	0.0	0	0	0
39	1	1	0.0	33.04293994002422	0.49999999999999994	0	0	0
40	1	1	0.0	33.90896534380866	0.0	0	0	0
41	1	1	0.0	34.7749907475931	0.49999999999999994	0	0	0
42	1	1	0.0	35.64101615137754	0.0	0	0	0
43	1	1	0.0	36.50704155516198	0.49999999999999994	0	0	0
44	1	1	0.0	37.373066958946424	0.0	0	0	0
45	1	1	0.0	38.239092362730865	0.49999999999999994	0	0	0
46	1	1	0.0	39.105117766515306	0.0	0	0	0
47	1	1	0.0	39.97114317029975	0.49999999999999994	0	0	0
48	1	1	0.0	40.83716857408419	0.0	0	0	0
49	1	1	0.0	41.70319397786863	0.49999999999999994	0	0	0
50	1	1	0.0	42.56921938165307	0.0	0	0	0
51	1	1	0.0	43.43524478543751	0.49999999999999994	0	0	0
52	1	1	0.0	44.30127018922195	0.0	0	0	0
53	1	1	0.0	45.16729559300639	0.49999999999999994	0	0	0
54	1	1	0.0	46.033320996790835	0.0	0	0	0
55	1	1	0.0	46.899346400575276	0.49999999999999994	0	0	0
56	1	1	0.0	47.76537180435972	0.0	0	0	0
57	1	1	0.0	48.63139720814416	0.49999999999999994	0	0	0
58	1	1	0.0	49.4974226119286	0.0	0	0	0
59	1	1	0.0	50.36344801571304	0.49999999999999994	0	0	0
60	1	1	0.0	51.22947341949748	0.0	0	0	0
61	1	1	0.0	52.09549882328192	0.49999999999999994	0	0	0
62	1	1	0.0	52.96152422706636	0.0	0	0	0
63	1	1	0.0	53.827549630850804	0.49999999999999994	0	0	0
64	1	1	0.0	54.693575034635245	0.0	0	0	0
65	1	1	0.0	55.559600438419686	0.49999999999999994	0	0	0
66	1	1	0.0	56.42562584220413	0.0	0	0	0
67	1	1	0.0	57.29165124598857	0.49999999999999994	0	0	0
68	1	1	0.0	58.15767664977301	0.0	0	0	0
69	1	1	0.0	59.02370205355745	0.49999999999999994	0	0	0
70	1	1	0.0	59.88972745734189	0.0	0	0	0
71	1	1	0.0	60.75575286112633	0.49999999999999994	0	0	0
72	1	1	0.0	61.62177826491077	0.0	0	0	0
73	1	1	0.0	62.487803668695214	0.49999999999999994	0	0	0
74	1	1	0.0	63.353829072479655	0.0	0	0	0
75	1	1	0.0	64.21985447626409	0.49999999999999994	0	0	0
76	1	1	0.0	65.08587988004852	0.0	0	0	0
77	1	1	0.0	65.95190528383296	0.49999999999999994	0	0	0
78	1	1	0.0	66.81793068761739	0.0	0	0	0
79	1	1	0.0	67.68395609140183	0.49999999999999994	0	0	0
80	1	1	0.0	68.54998149518626	0.0	0	0	0
81	1	1	0.0	69.41600689897069	0.49999999999999994	0	0	0
82	1	1	0.0	70.28203230275513	0.0	0	0	0
83	1	1	0.0	71.14805770653956	0.49999999999999994	0	0	0
84	1	1	0.0	72.014083110324	0.0	0	0	0
85	1	1	0.0	72.88010851410843	0.49999999999999994	0	0	0
86	1	1	0.0	73.74613391789286	0.0	0	0	0
87	1	1	0.0	74.6121593216773	0.49999999999999994	0	0	0
88	1	1	0.0	75.47818472546173	0.0	0	0	0
89	1	1	0.0	76.34421012924616	0.49999999999999994	0	0	0
90	1	1	0.0	77.2102355330306	0.0	0	0	0
91	1	1	0.0	78.07626093681503	0.49999999999999994	0	0	0
92	1	1	0.0	78.94228634059947	0.0	0	0	0
93	1	1	0.0	79.8083117443839	0.49999999999999994	0	0	0
94	1	1	0.0	80.67433714816833	0.0	0	0	0
95	1	1	0.0	81.54036255195277	0.49999999999999994	0	0	0
96	1	1	0.0	82.4063879557372	0.0	0	0	0
97	1	1	0.0	83.27241335952164	0.49999999999999994	0	0	0
98	1	1	0.0	84.13843876330607	0.0	0	0	0
99	1	1	0.0	85.0044641670905	0.49999999999999994	0	0	0
100	1	1	0.0	85.87048957087494	0.0	0	0	0

Bonds

1	1	1	2
2	1	2	3
3	1	3	4
4	1	4	5
5	1	5	6
6	1	6	7
7	1	7	8
8	1	8	9
9	1	9	10
10	1	10	11
11	1	11	12
12	1	12	13
13	1	13	14
14	1	14	15
15	1	15	16
16	1	16	17
17	1	17	18
18	1	18	19
19	1	19	20
20	1	20	21
21	1	21	22
22	1	22	23
23	1	23	24
24	1	24	25
25	1	25	26
26	1	26	27
27	1	27	28
28	1	28	29
29	1	29	30
30	1	30	31
31	1	31	32
32	1	32	33
33	1	33	34
34	1	34	35
35	1	35	36
36	1	36	37
37	1	37	38
38	1	38	39
39	1	39	40
40	1	40	41
41	1	41	42
42	1	42	43
43	1	43	44
44	1	44	45
45	1	45	46
46	1	46	47
47	1	47	48
48	1	48	49
49	1	49	50
50	1	50	51
51	1	51	52
52	1	52	53
53	1	53	54
54	1	54	55
55	1	55	56
56	1	56	57
57	1	57	58
58	1	58	59
59	1	59	60
60	1	60	61
61	1	61	62
62	1	62	63
63	1	63	64
64	1	64	65
65	1	65	66
66	1	66	67
67	1	67	68
68	1	68	69
69	1	69	70
70	1	70	71
71	1	71	72
72	1	72	73
73	1	73	74
74	1	74	75
75	1	75	76
76	1	76	77
77	1	77	78
78	1	78	79
79	1	79	80
80	1	80	81
81	1	81	82
82	1	82	83
83	1	83	84
84	1	84	85
85	1	85	86
86	1	86	87
87	1	87	88
88	1	88	89
89	1	89	90
90	1	90	91
91	1	91	92
92	1	92	93
93	1	93	94
94	1	94	95
95	1	95	96
96	1	96	97
97	1	97	98
98	1	98	99
99	1	99	100

Angles

1	1	1	2	3
2	1	2	3	4
3	1	3	4	5
4	1	4	5	6
5	1	5	6	7
6	1	6	7	8
7	1	7	8	9
8	1	8	9	10
9	1	9	10	11
10	1	10	11	12
11	1	11	12	13
12	1	12	13	14
13	1	13	14	15
14	1	14	15	16
15	1	15	16	17
16	1	16	17	18
17	1	17	18	19
18	1	18	19	20
19	1	19	20	21
20	1	20	21	22
21	1	21	22	23
22	1	22	23	24
23	1	23	24	25
24	1	24	25	26
25	1	25	26	27
26	1	26	27	28
27	1	27	28	29
28	1	28	29	30
29	1	29	30	31
30	1	30	31	32
31	1	31	32	33
32	1	32	33	34
33	1	33	34	35
34	1	34	35	36
35	1	35	36	37
36	1	36	37	38
37	1	37	38	39
38	1	38	39	40
39	1	39	40	41
40	1	40	41	42
41	1	41	42	43
42	1	42	43	44
43	1	43	44	45
44	1	44	45	46
45	1	45	46	47
46	1	46	47	48
47	1	47	48	49
48	1	48	49	50
49	1	49	50	51
50	1	50	51	52
51	1	51	52	53
52	1	52	53	54
53	1	53	54	55
54	1	54	55	56
55	1	55	56	57
56	1	56	57	58
57	1	57	58	59
58	1	58	59	60
59	1	59	60	61
60	1	60	61	62
61	1	61	62	63
62	1	62	63	64
63	1	63	64	65
64	1	64	65	66
65	1	65	66	67
66	1	66	67	68
67	1	67	68	69
68	1	68	69	70
69	1	69	70	71
70	1	70	71	72
71	1	71	72	73
72	1	72	73	74
73	1	73	74	75
74	1	74	75	76
75	1	75	76	77
76	1	76	77	78
77	1	77	78	79
78	1	78	79	80
79	1	79	80	81
80	1	80	81	82
81	1	81	82	83
82	1	82	83	84
83	1	83	84	85
84	1	84	85	86
85	1	85	86	87
86	1	86	87	88
87	1	87	88	89
88	1	88	89	90
89	1	89	90	91
90	1	90	91	92
91	1	91	92	93
92	1	92	93	94
93	1	93	94	95
94	1	94	95	96
95	1	95	96	97
96	1	96	97	98
97	1	97	98	99
98	1	98	99	100
