bb400nuc0bl0bn0d30tot400

400 atoms
399 bonds
398 angles

1 atom types
1 bond types
1 angle types

-1000 1000 xlo xhi
-1000 1000 ylo yhi
-1000 1000 zlo zhi

Masses

1 1

Atoms

1	1	1	0.0	0.0	0.0	0	0	0
2	1	1	0.0	1.0	0.0	0	0	0
3	1	1	0.0	1.8660254037844388	0.49999999999999994	0	0	0
4	1	1	0.0	2.7320508075688776	0.0	0	0	0
5	1	1	0.0	3.5980762113533165	0.49999999999999994	0	0	0
6	1	1	0.0	4.464101615137755	0.0	0	0	0
7	1	1	0.0	5.330127018922194	0.49999999999999994	0	0	0
8	1	1	0.0	6.196152422706632	0.0	0	0	0
9	1	1	0.0	7.06217782649107	0.49999999999999994	0	0	0
10	1	1	0.0	7.928203230275509	0.0	0	0	0
11	1	1	0.0	8.794228634059948	0.49999999999999994	0	0	0
12	1	1	0.0	9.660254037844387	0.0	0	0	0
13	1	1	0.0	10.526279441628827	0.49999999999999994	0	0	0
14	1	1	0.0	11.392304845413266	0.0	0	0	0
15	1	1	0.0	12.258330249197705	0.49999999999999994	0	0	0
16	1	1	0.0	13.124355652982144	0.0	0	0	0
17	1	1	0.0	13.990381056766584	0.49999999999999994	0	0	0
18	1	1	0.0	14.856406460551023	0.0	0	0	0
19	1	1	0.0	15.722431864335462	0.49999999999999994	0	0	0
20	1	1	0.0	16.5884572681199	0.0	0	0	0
21	1	1	0.0	17.454482671904337	0.49999999999999994	0	0	0
22	1	1	0.0	18.320508075688775	0.0	0	0	0
23	1	1	0.0	19.186533479473212	0.49999999999999994	0	0	0
24	1	1	0.0	20.05255888325765	0.0	0	0	0
25	1	1	0.0	20.918584287042087	0.49999999999999994	0	0	0
26	1	1	0.0	21.784609690826525	0.0	0	0	0
27	1	1	0.0	22.650635094610962	0.49999999999999994	0	0	0
28	1	1	0.0	23.5166604983954	0.0	0	0	0
29	1	1	0.0	24.382685902179837	0.49999999999999994	0	0	0
30	1	1	0.0	25.248711305964274	0.0	0	0	0
31	1	1	0.0	26.114736709748712	0.49999999999999994	0	0	0
32	1	1	0.0	26.98076211353315	0.0	0	0	0
33	1	1	0.0	27.846787517317587	0.49999999999999994	0	0	0
34	1	1	0.0	28.712812921102024	0.0	0	0	0
35	1	1	0.0	29.578838324886462	0.49999999999999994	0	0	0
36	1	1	0.0	30.4448637286709	0.0	0	0	0
37	1	1	0.0	31.310889132455337	0.49999999999999994	0	0	0
38	1	1	0.0	32.17691453623978	0.0	0	0	0
39	1	1	0.0	33.04293994002422	0.49999999999999994	0	0	0
40	1	1	0.0	33.90896534380866	0.0	0	0	0
41	1	1	0.0	34.7749907475931	0.49999999999999994	0	0	0
42	1	1	0.0	35.64101615137754	0.0	0	0	0
43	1	1	0.0	36.50704155516198	0.49999999999999994	0	0	0
44	1	1	0.0	37.373066958946424	0.0	0	0	0
45	1	1	0.0	38.239092362730865	0.49999999999999994	0	0	0
46	1	1	0.0	39.105117766515306	0.0	0	0	0
47	1	1	0.0	39.97114317029975	0.49999999999999994	0	0	0
48	1	1	0.0	40.83716857408419	0.0	0	0	0
49	1	1	0.0	41.70319397786863	0.49999999999999994	0	0	0
50	1	1	0.0	42.56921938165307	0.0	0	0	0
51	1	1	0.0	43.43524478543751	0.49999999999999994	0	0	0
52	1	1	0.0	44.30127018922195	0.0	0	0	0
53	1	1	0.0	45.16729559300639	0.49999999999999994	0	0	0
54	1	1	0.0	46.033320996790835	0.0	0	0	0
55	1	1	0.0	46.899346400575276	0.49999999999999994	0	0	0
56	1	1	0.0	47.76537180435972	0.0	0	0	0
57	1	1	0.0	48.63139720814416	0.49999999999999994	0	0	0
58	1	1	0.0	49.4974226119286	0.0	0	0	0
59	1	1	0.0	50.36344801571304	0.49999999999999994	0	0	0
60	1	1	0.0	51.22947341949748	0.0	0	0	0
61	1	1	0.0	52.09549882328192	0.49999999999999994	0	0	0
62	1	1	0.0	52.96152422706636	0.0	0	0	0
63	1	1	0.0	53.827549630850804	0.49999999999999994	0	0	0
64	1	1	0.0	54.693575034635245	0.0	0	0	0
65	1	1	0.0	55.559600438419686	0.49999999999999994	0	0	0
66	1	1	0.0	56.42562584220413	0.0	0	0	0
67	1	1	0.0	57.29165124598857	0.49999999999999994	0	0	0
68	1	1	0.0	58.15767664977301	0.0	0	0	0
69	1	1	0.0	59.02370205355745	0.49999999999999994	0	0	0
70	1	1	0.0	59.88972745734189	0.0	0	0	0
71	1	1	0.0	60.75575286112633	0.49999999999999994	0	0	0
72	1	1	0.0	61.62177826491077	0.0	0	0	0
73	1	1	0.0	62.487803668695214	0.49999999999999994	0	0	0
74	1	1	0.0	63.353829072479655	0.0	0	0	0
75	1	1	0.0	64.21985447626409	0.49999999999999994	0	0	0
76	1	1	0.0	65.08587988004852	0.0	0	0	0
77	1	1	0.0	65.95190528383296	0.49999999999999994	0	0	0
78	1	1	0.0	66.81793068761739	0.0	0	0	0
79	1	1	0.0	67.68395609140183	0.49999999999999994	0	0	0
80	1	1	0.0	68.54998149518626	0.0	0	0	0
81	1	1	0.0	69.41600689897069	0.49999999999999994	0	0	0
82	1	1	0.0	70.28203230275513	0.0	0	0	0
83	1	1	0.0	71.14805770653956	0.49999999999999994	0	0	0
84	1	1	0.0	72.014083110324	0.0	0	0	0
85	1	1	0.0	72.88010851410843	0.49999999999999994	0	0	0
86	1	1	0.0	73.74613391789286	0.0	0	0	0
87	1	1	0.0	74.6121593216773	0.49999999999999994	0	0	0
88	1	1	0.0	75.47818472546173	0.0	0	0	0
89	1	1	0.0	76.34421012924616	0.49999999999999994	0	0	0
90	1	1	0.0	77.2102355330306	0.0	0	0	0
91	1	1	0.0	78.07626093681503	0.49999999999999994	0	0	0
92	1	1	0.0	78.94228634059947	0.0	0	0	0
93	1	1	0.0	79.8083117443839	0.49999999999999994	0	0	0
94	1	1	0.0	80.67433714816833	0.0	0	0	0
95	1	1	0.0	81.54036255195277	0.49999999999999994	0	0	0
96	1	1	0.0	82.4063879557372	0.0	0	0	0
97	1	1	0.0	83.27241335952164	0.49999999999999994	0	0	0
98	1	1	0.0	84.13843876330607	0.0	0	0	0
99	1	1	0.0	85.0044641670905	0.49999999999999994	0	0	0
100	1	1	0.0	85.87048957087494	0.0	0	0	0
101	1	1	0.0	86.73651497465937	0.49999999999999994	0	0	0
102	1	1	0.0	87.6025403784438	0.0	0	0	0
103	1	1	0.0	88.46856578222824	0.49999999999999994	0	0	0
104	1	1	0.0	89.33459118601267	0.0	0	0	0
105	1	1	0.0	90.20061658979711	0.49999999999999994	0	0	0
106	1	1	0.0	91.06664199358154	0.0	0	0	0
107	1	1	0.0	91.93266739736598	0.49999999999999994	0	0	0
108	1	1	0.0	92.79869280115041	0.0	0	0	0
109	1	1	0.0	93.66471820493484	0.49999999999999994	0	0	0
110	1	1	0.0	94.53074360871928	0.0	0	0	0
111	1	1	0.0	95.39676901250371	0.49999999999999994	0	0	0
112	1	1	0.0	96.26279441628814	0.0	0	0	0
113	1	1	0.0	97.12881982007258	0.49999999999999994	0	0	0
114	1	1	0.0	97.99484522385701	0.0	0	0	0
115	1	1	0.0	98.86087062764145	0.49999999999999994	0	0	0
116	1	1	0.0	99.72689603142588	0.0	0	0	0
117	1	1	0.0	100.59292143521031	0.49999999999999994	0	0	0
118	1	1	0.0	101.45894683899475	0.0	0	0	0
119	1	1	0.0	102.32497224277918	0.49999999999999994	0	0	0
120	1	1	0.0	103.19099764656362	0.0	0	0	0
121	1	1	0.0	104.05702305034805	0.49999999999999994	0	0	0
122	1	1	0.0	104.92304845413248	0.0	0	0	0
123	1	1	0.0	105.78907385791692	0.49999999999999994	0	0	0
124	1	1	0.0	106.65509926170135	0.0	0	0	0
125	1	1	0.0	107.52112466548579	0.49999999999999994	0	0	0
126	1	1	0.0	108.38715006927022	0.0	0	0	0
127	1	1	0.0	109.25317547305465	0.49999999999999994	0	0	0
128	1	1	0.0	110.11920087683909	0.0	0	0	0
129	1	1	0.0	110.98522628062352	0.49999999999999994	0	0	0
130	1	1	0.0	111.85125168440796	0.0	0	0	0
131	1	1	0.0	112.71727708819239	0.49999999999999994	0	0	0
132	1	1	0.0	113.58330249197682	0.0	0	0	0
133	1	1	0.0	114.44932789576126	0.49999999999999994	0	0	0
134	1	1	0.0	115.31535329954569	0.0	0	0	0
135	1	1	0.0	116.18137870333013	0.49999999999999994	0	0	0
136	1	1	0.0	117.04740410711456	0.0	0	0	0
137	1	1	0.0	117.913429510899	0.49999999999999994	0	0	0
138	1	1	0.0	118.77945491468343	0.0	0	0	0
139	1	1	0.0	119.64548031846786	0.49999999999999994	0	0	0
140	1	1	0.0	120.5115057222523	0.0	0	0	0
141	1	1	0.0	121.37753112603673	0.49999999999999994	0	0	0
142	1	1	0.0	122.24355652982116	0.0	0	0	0
143	1	1	0.0	123.1095819336056	0.49999999999999994	0	0	0
144	1	1	0.0	123.97560733739003	0.0	0	0	0
145	1	1	0.0	124.84163274117446	0.49999999999999994	0	0	0
146	1	1	0.0	125.7076581449589	0.0	0	0	0
147	1	1	0.0	126.57368354874333	0.49999999999999994	0	0	0
148	1	1	0.0	127.43970895252777	0.0	0	0	0
149	1	1	0.0	128.3057343563122	0.49999999999999994	0	0	0
150	1	1	0.0	129.17175976009665	0.0	0	0	0
151	1	1	0.0	130.0377851638811	0.49999999999999994	0	0	0
152	1	1	0.0	130.90381056766554	0.0	0	0	0
153	1	1	0.0	131.76983597145	0.49999999999999994	0	0	0
154	1	1	0.0	132.63586137523444	0.0	0	0	0
155	1	1	0.0	133.5018867790189	0.49999999999999994	0	0	0
156	1	1	0.0	134.36791218280334	0.0	0	0	0
157	1	1	0.0	135.23393758658779	0.49999999999999994	0	0	0
158	1	1	0.0	136.09996299037223	0.0	0	0	0
159	1	1	0.0	136.96598839415668	0.49999999999999994	0	0	0
160	1	1	0.0	137.83201379794113	0.0	0	0	0
161	1	1	0.0	138.69803920172558	0.49999999999999994	0	0	0
162	1	1	0.0	139.56406460551003	0.0	0	0	0
163	1	1	0.0	140.43009000929447	0.49999999999999994	0	0	0
164	1	1	0.0	141.29611541307892	0.0	0	0	0
165	1	1	0.0	142.16214081686337	0.49999999999999994	0	0	0
166	1	1	0.0	143.02816622064782	0.0	0	0	0
167	1	1	0.0	143.89419162443227	0.49999999999999994	0	0	0
168	1	1	0.0	144.76021702821672	0.0	0	0	0
169	1	1	0.0	145.62624243200116	0.49999999999999994	0	0	0
170	1	1	0.0	146.4922678357856	0.0	0	0	0
171	1	1	0.0	147.35829323957006	0.49999999999999994	0	0	0
172	1	1	0.0	148.2243186433545	0.0	0	0	0
173	1	1	0.0	149.09034404713896	0.49999999999999994	0	0	0
174	1	1	0.0	149.9563694509234	0.0	0	0	0
175	1	1	0.0	150.82239485470785	0.49999999999999994	0	0	0
176	1	1	0.0	151.6884202584923	0.0	0	0	0
177	1	1	0.0	152.55444566227675	0.49999999999999994	0	0	0
178	1	1	0.0	153.4204710660612	0.0	0	0	0
179	1	1	0.0	154.28649646984564	0.49999999999999994	0	0	0
180	1	1	0.0	155.1525218736301	0.0	0	0	0
181	1	1	0.0	156.01854727741454	0.49999999999999994	0	0	0
182	1	1	0.0	156.884572681199	0.0	0	0	0
183	1	1	0.0	157.75059808498344	0.49999999999999994	0	0	0
184	1	1	0.0	158.61662348876789	0.0	0	0	0
185	1	1	0.0	159.48264889255233	0.49999999999999994	0	0	0
186	1	1	0.0	160.34867429633678	0.0	0	0	0
187	1	1	0.0	161.21469970012123	0.49999999999999994	0	0	0
188	1	1	0.0	162.08072510390568	0.0	0	0	0
189	1	1	0.0	162.94675050769013	0.49999999999999994	0	0	0
190	1	1	0.0	163.81277591147457	0.0	0	0	0
191	1	1	0.0	164.67880131525902	0.49999999999999994	0	0	0
192	1	1	0.0	165.54482671904347	0.0	0	0	0
193	1	1	0.0	166.41085212282792	0.49999999999999994	0	0	0
194	1	1	0.0	167.27687752661237	0.0	0	0	0
195	1	1	0.0	168.14290293039682	0.49999999999999994	0	0	0
196	1	1	0.0	169.00892833418126	0.0	0	0	0
197	1	1	0.0	169.8749537379657	0.49999999999999994	0	0	0
198	1	1	0.0	170.74097914175016	0.0	0	0	0
199	1	1	0.0	171.6070045455346	0.49999999999999994	0	0	0
200	1	1	0.0	172.47302994931906	0.0	0	0	0
201	1	1	0.0	173.3390553531035	0.49999999999999994	0	0	0
202	1	1	0.0	174.20508075688795	0.0	0	0	0
203	1	1	0.0	175.0711061606724	0.49999999999999994	0	0	0
204	1	1	0.0	175.93713156445685	0.0	0	0	0
205	1	1	0.0	176.8031569682413	0.49999999999999994	0	0	0
206	1	1	0.0	177.66918237202574	0.0	0	0	0
207	1	1	0.0	178.5352077758102	0.49999999999999994	0	0	0
208	1	1	0.0	179.40123317959464	0.0	0	0	0
209	1	1	0.0	180.2672585833791	0.49999999999999994	0	0	0
210	1	1	0.0	181.13328398716354	0.0	0	0	0
211	1	1	0.0	181.99930939094799	0.49999999999999994	0	0	0
212	1	1	0.0	182.86533479473243	0.0	0	0	0
213	1	1	0.0	183.73136019851688	0.49999999999999994	0	0	0
214	1	1	0.0	184.59738560230133	0.0	0	0	0
215	1	1	0.0	185.46341100608578	0.49999999999999994	0	0	0
216	1	1	0.0	186.32943640987023	0.0	0	0	0
217	1	1	0.0	187.19546181365467	0.49999999999999994	0	0	0
218	1	1	0.0	188.06148721743912	0.0	0	0	0
219	1	1	0.0	188.92751262122357	0.49999999999999994	0	0	0
220	1	1	0.0	189.79353802500802	0.0	0	0	0
221	1	1	0.0	190.65956342879247	0.49999999999999994	0	0	0
222	1	1	0.0	191.52558883257691	0.0	0	0	0
223	1	1	0.0	192.39161423636136	0.49999999999999994	0	0	0
224	1	1	0.0	193.2576396401458	0.0	0	0	0
225	1	1	0.0	194.12366504393026	0.49999999999999994	0	0	0
226	1	1	0.0	194.9896904477147	0.0	0	0	0
227	1	1	0.0	195.85571585149916	0.49999999999999994	0	0	0
228	1	1	0.0	196.7217412552836	0.0	0	0	0
229	1	1	0.0	197.58776665906805	0.49999999999999994	0	0	0
230	1	1	0.0	198.4537920628525	0.0	0	0	0
231	1	1	0.0	199.31981746663695	0.49999999999999994	0	0	0
232	1	1	0.0	200.1858428704214	0.0	0	0	0
233	1	1	0.0	201.05186827420584	0.49999999999999994	0	0	0
234	1	1	0.0	201.9178936779903	0.0	0	0	0
235	1	1	0.0	202.78391908177474	0.49999999999999994	0	0	0
236	1	1	0.0	203.6499444855592	0.0	0	0	0
237	1	1	0.0	204.51596988934364	0.49999999999999994	0	0	0
238	1	1	0.0	205.38199529312809	0.0	0	0	0
239	1	1	0.0	206.24802069691253	0.49999999999999994	0	0	0
240	1	1	0.0	207.11404610069698	0.0	0	0	0
241	1	1	0.0	207.98007150448143	0.49999999999999994	0	0	0
242	1	1	0.0	208.84609690826588	0.0	0	0	0
243	1	1	0.0	209.71212231205033	0.49999999999999994	0	0	0
244	1	1	0.0	210.57814771583477	0.0	0	0	0
245	1	1	0.0	211.44417311961922	0.49999999999999994	0	0	0
246	1	1	0.0	212.31019852340367	0.0	0	0	0
247	1	1	0.0	213.17622392718812	0.49999999999999994	0	0	0
248	1	1	0.0	214.04224933097257	0.0	0	0	0
249	1	1	0.0	214.90827473475701	0.49999999999999994	0	0	0
250	1	1	0.0	215.77430013854146	0.0	0	0	0
251	1	1	0.0	216.6403255423259	0.49999999999999994	0	0	0
252	1	1	0.0	217.50635094611036	0.0	0	0	0
253	1	1	0.0	218.3723763498948	0.49999999999999994	0	0	0
254	1	1	0.0	219.23840175367926	0.0	0	0	0
255	1	1	0.0	220.1044271574637	0.49999999999999994	0	0	0
256	1	1	0.0	220.97045256124815	0.0	0	0	0
257	1	1	0.0	221.8364779650326	0.49999999999999994	0	0	0
258	1	1	0.0	222.70250336881705	0.0	0	0	0
259	1	1	0.0	223.5685287726015	0.49999999999999994	0	0	0
260	1	1	0.0	224.43455417638594	0.0	0	0	0
261	1	1	0.0	225.3005795801704	0.49999999999999994	0	0	0
262	1	1	0.0	226.16660498395484	0.0	0	0	0
263	1	1	0.0	227.0326303877393	0.49999999999999994	0	0	0
264	1	1	0.0	227.89865579152374	0.0	0	0	0
265	1	1	0.0	228.76468119530819	0.49999999999999994	0	0	0
266	1	1	0.0	229.63070659909263	0.0	0	0	0
267	1	1	0.0	230.49673200287708	0.49999999999999994	0	0	0
268	1	1	0.0	231.36275740666153	0.0	0	0	0
269	1	1	0.0	232.22878281044598	0.49999999999999994	0	0	0
270	1	1	0.0	233.09480821423043	0.0	0	0	0
271	1	1	0.0	233.96083361801487	0.49999999999999994	0	0	0
272	1	1	0.0	234.82685902179932	0.0	0	0	0
273	1	1	0.0	235.69288442558377	0.49999999999999994	0	0	0
274	1	1	0.0	236.55890982936822	0.0	0	0	0
275	1	1	0.0	237.42493523315267	0.49999999999999994	0	0	0
276	1	1	0.0	238.29096063693711	0.0	0	0	0
277	1	1	0.0	239.15698604072156	0.49999999999999994	0	0	0
278	1	1	0.0	240.023011444506	0.0	0	0	0
279	1	1	0.0	240.88903684829046	0.49999999999999994	0	0	0
280	1	1	0.0	241.7550622520749	0.0	0	0	0
281	1	1	0.0	242.62108765585936	0.49999999999999994	0	0	0
282	1	1	0.0	243.4871130596438	0.0	0	0	0
283	1	1	0.0	244.35313846342825	0.49999999999999994	0	0	0
284	1	1	0.0	245.2191638672127	0.0	0	0	0
285	1	1	0.0	246.08518927099715	0.49999999999999994	0	0	0
286	1	1	0.0	246.9512146747816	0.0	0	0	0
287	1	1	0.0	247.81724007856604	0.49999999999999994	0	0	0
288	1	1	0.0	248.6832654823505	0.0	0	0	0
289	1	1	0.0	249.54929088613494	0.49999999999999994	0	0	0
290	1	1	0.0	250.4153162899194	0.0	0	0	0
291	1	1	0.0	251.28134169370384	0.49999999999999994	0	0	0
292	1	1	0.0	252.14736709748829	0.0	0	0	0
293	1	1	0.0	253.01339250127273	0.49999999999999994	0	0	0
294	1	1	0.0	253.87941790505718	0.0	0	0	0
295	1	1	0.0	254.74544330884163	0.49999999999999994	0	0	0
296	1	1	0.0	255.61146871262608	0.0	0	0	0
297	1	1	0.0	256.4774941164105	0.49999999999999994	0	0	0
298	1	1	0.0	257.34351952019495	0.0	0	0	0
299	1	1	0.0	258.20954492397937	0.49999999999999994	0	0	0
300	1	1	0.0	259.0755703277638	0.0	0	0	0
301	1	1	0.0	259.9415957315482	0.49999999999999994	0	0	0
302	1	1	0.0	260.8076211353326	0.0	0	0	0
303	1	1	0.0	261.67364653911704	0.49999999999999994	0	0	0
304	1	1	0.0	262.53967194290146	0.0	0	0	0
305	1	1	0.0	263.4056973466859	0.49999999999999994	0	0	0
306	1	1	0.0	264.2717227504703	0.0	0	0	0
307	1	1	0.0	265.1377481542547	0.49999999999999994	0	0	0
308	1	1	0.0	266.00377355803914	0.0	0	0	0
309	1	1	0.0	266.86979896182356	0.49999999999999994	0	0	0
310	1	1	0.0	267.735824365608	0.0	0	0	0
311	1	1	0.0	268.6018497693924	0.49999999999999994	0	0	0
312	1	1	0.0	269.4678751731768	0.0	0	0	0
313	1	1	0.0	270.33390057696124	0.49999999999999994	0	0	0
314	1	1	0.0	271.19992598074566	0.0	0	0	0
315	1	1	0.0	272.0659513845301	0.49999999999999994	0	0	0
316	1	1	0.0	272.9319767883145	0.0	0	0	0
317	1	1	0.0	273.7980021920989	0.49999999999999994	0	0	0
318	1	1	0.0	274.66402759588334	0.0	0	0	0
319	1	1	0.0	275.53005299966776	0.49999999999999994	0	0	0
320	1	1	0.0	276.3960784034522	0.0	0	0	0
321	1	1	0.0	277.2621038072366	0.49999999999999994	0	0	0
322	1	1	0.0	278.128129211021	0.0	0	0	0
323	1	1	0.0	278.99415461480544	0.49999999999999994	0	0	0
324	1	1	0.0	279.86018001858986	0.0	0	0	0
325	1	1	0.0	280.7262054223743	0.49999999999999994	0	0	0
326	1	1	0.0	281.5922308261587	0.0	0	0	0
327	1	1	0.0	282.4582562299431	0.49999999999999994	0	0	0
328	1	1	0.0	283.32428163372754	0.0	0	0	0
329	1	1	0.0	284.19030703751196	0.49999999999999994	0	0	0
330	1	1	0.0	285.0563324412964	0.0	0	0	0
331	1	1	0.0	285.9223578450808	0.49999999999999994	0	0	0
332	1	1	0.0	286.7883832488652	0.0	0	0	0
333	1	1	0.0	287.65440865264964	0.49999999999999994	0	0	0
334	1	1	0.0	288.52043405643406	0.0	0	0	0
335	1	1	0.0	289.3864594602185	0.49999999999999994	0	0	0
336	1	1	0.0	290.2524848640029	0.0	0	0	0
337	1	1	0.0	291.1185102677873	0.49999999999999994	0	0	0
338	1	1	0.0	291.98453567157173	0.0	0	0	0
339	1	1	0.0	292.85056107535615	0.49999999999999994	0	0	0
340	1	1	0.0	293.7165864791406	0.0	0	0	0
341	1	1	0.0	294.582611882925	0.49999999999999994	0	0	0
342	1	1	0.0	295.4486372867094	0.0	0	0	0
343	1	1	0.0	296.31466269049383	0.49999999999999994	0	0	0
344	1	1	0.0	297.18068809427825	0.0	0	0	0
345	1	1	0.0	298.0467134980627	0.49999999999999994	0	0	0
346	1	1	0.0	298.9127389018471	0.0	0	0	0
347	1	1	0.0	299.7787643056315	0.49999999999999994	0	0	0
348	1	1	0.0	300.64478970941593	0.0	0	0	0
349	1	1	0.0	301.51081511320035	0.49999999999999994	0	0	0
350	1	1	0.0	302.37684051698477	0.0	0	0	0
351	1	1	0.0	303.2428659207692	0.49999999999999994	0	0	0
352	1	1	0.0	304.1088913245536	0.0	0	0	0
353	1	1	0.0	304.97491672833803	0.49999999999999994	0	0	0
354	1	1	0.0	305.84094213212245	0.0	0	0	0
355	1	1	0.0	306.70696753590687	0.49999999999999994	0	0	0
356	1	1	0.0	307.5729929396913	0.0	0	0	0
357	1	1	0.0	308.4390183434757	0.49999999999999994	0	0	0
358	1	1	0.0	309.30504374726013	0.0	0	0	0
359	1	1	0.0	310.17106915104455	0.49999999999999994	0	0	0
360	1	1	0.0	311.03709455482897	0.0	0	0	0
361	1	1	0.0	311.9031199586134	0.49999999999999994	0	0	0
362	1	1	0.0	312.7691453623978	0.0	0	0	0
363	1	1	0.0	313.6351707661822	0.49999999999999994	0	0	0
364	1	1	0.0	314.50119616996665	0.0	0	0	0
365	1	1	0.0	315.36722157375107	0.49999999999999994	0	0	0
366	1	1	0.0	316.2332469775355	0.0	0	0	0
367	1	1	0.0	317.0992723813199	0.49999999999999994	0	0	0
368	1	1	0.0	317.9652977851043	0.0	0	0	0
369	1	1	0.0	318.83132318888875	0.49999999999999994	0	0	0
370	1	1	0.0	319.69734859267317	0.0	0	0	0
371	1	1	0.0	320.5633739964576	0.49999999999999994	0	0	0
372	1	1	0.0	321.429399400242	0.0	0	0	0
373	1	1	0.0	322.2954248040264	0.49999999999999994	0	0	0
374	1	1	0.0	323.16145020781084	0.0	0	0	0
375	1	1	0.0	324.02747561159526	0.49999999999999994	0	0	0
376	1	1	0.0	324.8935010153797	0.0	0	0	0
377	1	1	0.0	325.7595264191641	0.49999999999999994	0	0	0
378	1	1	0.0	326.6255518229485	0.0	0	0	0
379	1	1	0.0	327.49157722673294	0.49999999999999994	0	0	0
380	1	1	0.0	328.35760263051736	0.0	0	0	0
381	1	1	0.0	329.2236280343018	0.49999999999999994	0	0	0
382	1	1	0.0	330.0896534380862	0.0	0	0	0
383	1	1	0.0	330.9556788418706	0.49999999999999994	0	0	0
384	1	1	0.0	331.82170424565504	0.0	0	0	0
385	1	1	0.0	332.68772964943946	0.49999999999999994	0	0	0
386	1	1	0.0	333.5537550532239	0.0	0	0	0
387	1	1	0.0	334.4197804570083	0.49999999999999994	0	0	0
388	1	1	0.0	335.2858058607927	0.0	0	0	0
389	1	1	0.0	336.15183126457714	0.49999999999999994	0	0	0
390	1	1	0.0	337.01785666836156	0.0	0	0	0
391	1	1	0.0	337.883882072146	0.49999999999999994	0	0	0
392	1	1	0.0	338.7499074759304	0.0	0	0	0
393	1	1	0.0	339.6159328797148	0.49999999999999994	0	0	0
394	1	1	0.0	340.48195828349924	0.0	0	0	0
395	1	1	0.0	341.34798368728366	0.49999999999999994	0	0	0
396	1	1	0.0	342.2140090910681	0.0	0	0	0
397	1	1	0.0	343.0800344948525	0.49999999999999994	0	0	0
398	1	1	0.0	343.9460598986369	0.0	0	0	0
399	1	1	0.0	344.81208530242134	0.49999999999999994	0	0	0
400	1	1	0.0	345.67811070620576	0.0	0	0	0

Bonds

1	1	1	2
2	1	2	3
3	1	3	4
4	1	4	5
5	1	5	6
6	1	6	7
7	1	7	8
8	1	8	9
9	1	9	10
10	1	10	11
11	1	11	12
12	1	12	13
13	1	13	14
14	1	14	15
15	1	15	16
16	1	16	17
17	1	17	18
18	1	18	19
19	1	19	20
20	1	20	21
21	1	21	22
22	1	22	23
23	1	23	24
24	1	24	25
25	1	25	26
26	1	26	27
27	1	27	28
28	1	28	29
29	1	29	30
30	1	30	31
31	1	31	32
32	1	32	33
33	1	33	34
34	1	34	35
35	1	35	36
36	1	36	37
37	1	37	38
38	1	38	39
39	1	39	40
40	1	40	41
41	1	41	42
42	1	42	43
43	1	43	44
44	1	44	45
45	1	45	46
46	1	46	47
47	1	47	48
48	1	48	49
49	1	49	50
50	1	50	51
51	1	51	52
52	1	52	53
53	1	53	54
54	1	54	55
55	1	55	56
56	1	56	57
57	1	57	58
58	1	58	59
59	1	59	60
60	1	60	61
61	1	61	62
62	1	62	63
63	1	63	64
64	1	64	65
65	1	65	66
66	1	66	67
67	1	67	68
68	1	68	69
69	1	69	70
70	1	70	71
71	1	71	72
72	1	72	73
73	1	73	74
74	1	74	75
75	1	75	76
76	1	76	77
77	1	77	78
78	1	78	79
79	1	79	80
80	1	80	81
81	1	81	82
82	1	82	83
83	1	83	84
84	1	84	85
85	1	85	86
86	1	86	87
87	1	87	88
88	1	88	89
89	1	89	90
90	1	90	91
91	1	91	92
92	1	92	93
93	1	93	94
94	1	94	95
95	1	95	96
96	1	96	97
97	1	97	98
98	1	98	99
99	1	99	100
100	1	100	101
101	1	101	102
102	1	102	103
103	1	103	104
104	1	104	105
105	1	105	106
106	1	106	107
107	1	107	108
108	1	108	109
109	1	109	110
110	1	110	111
111	1	111	112
112	1	112	113
113	1	113	114
114	1	114	115
115	1	115	116
116	1	116	117
117	1	117	118
118	1	118	119
119	1	119	120
120	1	120	121
121	1	121	122
122	1	122	123
123	1	123	124
124	1	124	125
125	1	125	126
126	1	126	127
127	1	127	128
128	1	128	129
129	1	129	130
130	1	130	131
131	1	131	132
132	1	132	133
133	1	133	134
134	1	134	135
135	1	135	136
136	1	136	137
137	1	137	138
138	1	138	139
139	1	139	140
140	1	140	141
141	1	141	142
142	1	142	143
143	1	143	144
144	1	144	145
145	1	145	146
146	1	146	147
147	1	147	148
148	1	148	149
149	1	149	150
150	1	150	151
151	1	151	152
152	1	152	153
153	1	153	154
154	1	154	155
155	1	155	156
156	1	156	157
157	1	157	158
158	1	158	159
159	1	159	160
160	1	160	161
161	1	161	162
162	1	162	163
163	1	163	164
164	1	164	165
165	1	165	166
166	1	166	167
167	1	167	168
168	1	168	169
169	1	169	170
170	1	170	171
171	1	171	172
172	1	172	173
173	1	173	174
174	1	174	175
175	1	175	176
176	1	176	177
177	1	177	178
178	1	178	179
179	1	179	180
180	1	180	181
181	1	181	182
182	1	182	183
183	1	183	184
184	1	184	185
185	1	185	186
186	1	186	187
187	1	187	188
188	1	188	189
189	1	189	190
190	1	190	191
191	1	191	192
192	1	192	193
193	1	193	194
194	1	194	195
195	1	195	196
196	1	196	197
197	1	197	198
198	1	198	199
199	1	199	200
200	1	200	201
201	1	201	202
202	1	202	203
203	1	203	204
204	1	204	205
205	1	205	206
206	1	206	207
207	1	207	208
208	1	208	209
209	1	209	210
210	1	210	211
211	1	211	212
212	1	212	213
213	1	213	214
214	1	214	215
215	1	215	216
216	1	216	217
217	1	217	218
218	1	218	219
219	1	219	220
220	1	220	221
221	1	221	222
222	1	222	223
223	1	223	224
224	1	224	225
225	1	225	226
226	1	226	227
227	1	227	228
228	1	228	229
229	1	229	230
230	1	230	231
231	1	231	232
232	1	232	233
233	1	233	234
234	1	234	235
235	1	235	236
236	1	236	237
237	1	237	238
238	1	238	239
239	1	239	240
240	1	240	241
241	1	241	242
242	1	242	243
243	1	243	244
244	1	244	245
245	1	245	246
246	1	246	247
247	1	247	248
248	1	248	249
249	1	249	250
250	1	250	251
251	1	251	252
252	1	252	253
253	1	253	254
254	1	254	255
255	1	255	256
256	1	256	257
257	1	257	258
258	1	258	259
259	1	259	260
260	1	260	261
261	1	261	262
262	1	262	263
263	1	263	264
264	1	264	265
265	1	265	266
266	1	266	267
267	1	267	268
268	1	268	269
269	1	269	270
270	1	270	271
271	1	271	272
272	1	272	273
273	1	273	274
274	1	274	275
275	1	275	276
276	1	276	277
277	1	277	278
278	1	278	279
279	1	279	280
280	1	280	281
281	1	281	282
282	1	282	283
283	1	283	284
284	1	284	285
285	1	285	286
286	1	286	287
287	1	287	288
288	1	288	289
289	1	289	290
290	1	290	291
291	1	291	292
292	1	292	293
293	1	293	294
294	1	294	295
295	1	295	296
296	1	296	297
297	1	297	298
298	1	298	299
299	1	299	300
300	1	300	301
301	1	301	302
302	1	302	303
303	1	303	304
304	1	304	305
305	1	305	306
306	1	306	307
307	1	307	308
308	1	308	309
309	1	309	310
310	1	310	311
311	1	311	312
312	1	312	313
313	1	313	314
314	1	314	315
315	1	315	316
316	1	316	317
317	1	317	318
318	1	318	319
319	1	319	320
320	1	320	321
321	1	321	322
322	1	322	323
323	1	323	324
324	1	324	325
325	1	325	326
326	1	326	327
327	1	327	328
328	1	328	329
329	1	329	330
330	1	330	331
331	1	331	332
332	1	332	333
333	1	333	334
334	1	334	335
335	1	335	336
336	1	336	337
337	1	337	338
338	1	338	339
339	1	339	340
340	1	340	341
341	1	341	342
342	1	342	343
343	1	343	344
344	1	344	345
345	1	345	346
346	1	346	347
347	1	347	348
348	1	348	349
349	1	349	350
350	1	350	351
351	1	351	352
352	1	352	353
353	1	353	354
354	1	354	355
355	1	355	356
356	1	356	357
357	1	357	358
358	1	358	359
359	1	359	360
360	1	360	361
361	1	361	362
362	1	362	363
363	1	363	364
364	1	364	365
365	1	365	366
366	1	366	367
367	1	367	368
368	1	368	369
369	1	369	370
370	1	370	371
371	1	371	372
372	1	372	373
373	1	373	374
374	1	374	375
375	1	375	376
376	1	376	377
377	1	377	378
378	1	378	379
379	1	379	380
380	1	380	381
381	1	381	382
382	1	382	383
383	1	383	384
384	1	384	385
385	1	385	386
386	1	386	387
387	1	387	388
388	1	388	389
389	1	389	390
390	1	390	391
391	1	391	392
392	1	392	393
393	1	393	394
394	1	394	395
395	1	395	396
396	1	396	397
397	1	397	398
398	1	398	399
399	1	399	400

Angles

1	1	1	2	3
2	1	2	3	4
3	1	3	4	5
4	1	4	5	6
5	1	5	6	7
6	1	6	7	8
7	1	7	8	9
8	1	8	9	10
9	1	9	10	11
10	1	10	11	12
11	1	11	12	13
12	1	12	13	14
13	1	13	14	15
14	1	14	15	16
15	1	15	16	17
16	1	16	17	18
17	1	17	18	19
18	1	18	19	20
19	1	19	20	21
20	1	20	21	22
21	1	21	22	23
22	1	22	23	24
23	1	23	24	25
24	1	24	25	26
25	1	25	26	27
26	1	26	27	28
27	1	27	28	29
28	1	28	29	30
29	1	29	30	31
30	1	30	31	32
31	1	31	32	33
32	1	32	33	34
33	1	33	34	35
34	1	34	35	36
35	1	35	36	37
36	1	36	37	38
37	1	37	38	39
38	1	38	39	40
39	1	39	40	41
40	1	40	41	42
41	1	41	42	43
42	1	42	43	44
43	1	43	44	45
44	1	44	45	46
45	1	45	46	47
46	1	46	47	48
47	1	47	48	49
48	1	48	49	50
49	1	49	50	51
50	1	50	51	52
51	1	51	52	53
52	1	52	53	54
53	1	53	54	55
54	1	54	55	56
55	1	55	56	57
56	1	56	57	58
57	1	57	58	59
58	1	58	59	60
59	1	59	60	61
60	1	60	61	62
61	1	61	62	63
62	1	62	63	64
63	1	63	64	65
64	1	64	65	66
65	1	65	66	67
66	1	66	67	68
67	1	67	68	69
68	1	68	69	70
69	1	69	70	71
70	1	70	71	72
71	1	71	72	73
72	1	72	73	74
73	1	73	74	75
74	1	74	75	76
75	1	75	76	77
76	1	76	77	78
77	1	77	78	79
78	1	78	79	80
79	1	79	80	81
80	1	80	81	82
81	1	81	82	83
82	1	82	83	84
83	1	83	84	85
84	1	84	85	86
85	1	85	86	87
86	1	86	87	88
87	1	87	88	89
88	1	88	89	90
89	1	89	90	91
90	1	90	91	92
91	1	91	92	93
92	1	92	93	94
93	1	93	94	95
94	1	94	95	96
95	1	95	96	97
96	1	96	97	98
97	1	97	98	99
98	1	98	99	100
99	1	99	100	101
100	1	100	101	102
101	1	101	102	103
102	1	102	103	104
103	1	103	104	105
104	1	104	105	106
105	1	105	106	107
106	1	106	107	108
107	1	107	108	109
108	1	108	109	110
109	1	109	110	111
110	1	110	111	112
111	1	111	112	113
112	1	112	113	114
113	1	113	114	115
114	1	114	115	116
115	1	115	116	117
116	1	116	117	118
117	1	117	118	119
118	1	118	119	120
119	1	119	120	121
120	1	120	121	122
121	1	121	122	123
122	1	122	123	124
123	1	123	124	125
124	1	124	125	126
125	1	125	126	127
126	1	126	127	128
127	1	127	128	129
128	1	128	129	130
129	1	129	130	131
130	1	130	131	132
131	1	131	132	133
132	1	132	133	134
133	1	133	134	135
134	1	134	135	136
135	1	135	136	137
136	1	136	137	138
137	1	137	138	139
138	1	138	139	140
139	1	139	140	141
140	1	140	141	142
141	1	141	142	143
142	1	142	143	144
143	1	143	144	145
144	1	144	145	146
145	1	145	146	147
146	1	146	147	148
147	1	147	148	149
148	1	148	149	150
149	1	149	150	151
150	1	150	151	152
151	1	151	152	153
152	1	152	153	154
153	1	153	154	155
154	1	154	155	156
155	1	155	156	157
156	1	156	157	158
157	1	157	158	159
158	1	158	159	160
159	1	159	160	161
160	1	160	161	162
161	1	161	162	163
162	1	162	163	164
163	1	163	164	165
164	1	164	165	166
165	1	165	166	167
166	1	166	167	168
167	1	167	168	169
168	1	168	169	170
169	1	169	170	171
170	1	170	171	172
171	1	171	172	173
172	1	172	173	174
173	1	173	174	175
174	1	174	175	176
175	1	175	176	177
176	1	176	177	178
177	1	177	178	179
178	1	178	179	180
179	1	179	180	181
180	1	180	181	182
181	1	181	182	183
182	1	182	183	184
183	1	183	184	185
184	1	184	185	186
185	1	185	186	187
186	1	186	187	188
187	1	187	188	189
188	1	188	189	190
189	1	189	190	191
190	1	190	191	192
191	1	191	192	193
192	1	192	193	194
193	1	193	194	195
194	1	194	195	196
195	1	195	196	197
196	1	196	197	198
197	1	197	198	199
198	1	198	199	200
199	1	199	200	201
200	1	200	201	202
201	1	201	202	203
202	1	202	203	204
203	1	203	204	205
204	1	204	205	206
205	1	205	206	207
206	1	206	207	208
207	1	207	208	209
208	1	208	209	210
209	1	209	210	211
210	1	210	211	212
211	1	211	212	213
212	1	212	213	214
213	1	213	214	215
214	1	214	215	216
215	1	215	216	217
216	1	216	217	218
217	1	217	218	219
218	1	218	219	220
219	1	219	220	221
220	1	220	221	222
221	1	221	222	223
222	1	222	223	224
223	1	223	224	225
224	1	224	225	226
225	1	225	226	227
226	1	226	227	228
227	1	227	228	229
228	1	228	229	230
229	1	229	230	231
230	1	230	231	232
231	1	231	232	233
232	1	232	233	234
233	1	233	234	235
234	1	234	235	236
235	1	235	236	237
236	1	236	237	238
237	1	237	238	239
238	1	238	239	240
239	1	239	240	241
240	1	240	241	242
241	1	241	242	243
242	1	242	243	244
243	1	243	244	245
244	1	244	245	246
245	1	245	246	247
246	1	246	247	248
247	1	247	248	249
248	1	248	249	250
249	1	249	250	251
250	1	250	251	252
251	1	251	252	253
252	1	252	253	254
253	1	253	254	255
254	1	254	255	256
255	1	255	256	257
256	1	256	257	258
257	1	257	258	259
258	1	258	259	260
259	1	259	260	261
260	1	260	261	262
261	1	261	262	263
262	1	262	263	264
263	1	263	264	265
264	1	264	265	266
265	1	265	266	267
266	1	266	267	268
267	1	267	268	269
268	1	268	269	270
269	1	269	270	271
270	1	270	271	272
271	1	271	272	273
272	1	272	273	274
273	1	273	274	275
274	1	274	275	276
275	1	275	276	277
276	1	276	277	278
277	1	277	278	279
278	1	278	279	280
279	1	279	280	281
280	1	280	281	282
281	1	281	282	283
282	1	282	283	284
283	1	283	284	285
284	1	284	285	286
285	1	285	286	287
286	1	286	287	288
287	1	287	288	289
288	1	288	289	290
289	1	289	290	291
290	1	290	291	292
291	1	291	292	293
292	1	292	293	294
293	1	293	294	295
294	1	294	295	296
295	1	295	296	297
296	1	296	297	298
297	1	297	298	299
298	1	298	299	300
299	1	299	300	301
300	1	300	301	302
301	1	301	302	303
302	1	302	303	304
303	1	303	304	305
304	1	304	305	306
305	1	305	306	307
306	1	306	307	308
307	1	307	308	309
308	1	308	309	310
309	1	309	310	311
310	1	310	311	312
311	1	311	312	313
312	1	312	313	314
313	1	313	314	315
314	1	314	315	316
315	1	315	316	317
316	1	316	317	318
317	1	317	318	319
318	1	318	319	320