ITEM: TIMESTEP
0
ITEM: NUMBER OF ATOMS
199
ITEM: BOX BOUNDS pp pp pp
-1.0000000000000000e+03 1.0000000000000000e+03
-1.0000000000000000e+03 1.0000000000000000e+03
-1.0000000000000000e+03 1.0000000000000000e+03
ITEM: ATOMS id x y z ix iy iz
1 0.00000 0.00000 0.00000 0 0 0
2 0.00000 0.00000 1.00000 0 0 0
3 0.00000 -0.50000 1.86603 0 0 0
4 0.00000 0.00000 2.73205 0 0 0
5 0.00000 -0.50000 3.59808 0 0 0
6 0.00000 0.00000 4.46410 0 0 0
7 0.00000 -0.50000 5.33013 0 0 0
8 0.00000 0.00000 6.19615 0 0 0
9 0.00000 -0.50000 7.06218 0 0 0
10 0.00000 0.00000 7.92820 0 0 0
11 0.00000 -0.50000 8.79423 0 0 0
12 0.00000 0.00000 9.66025 0 0 0
13 0.00000 -0.50000 10.52628 0 0 0
14 0.00000 0.00000 11.39230 0 0 0
15 0.00000 -0.50000 12.25833 0 0 0
16 0.00000 0.00000 13.12436 0 0 0
17 0.00000 -0.50000 13.99038 0 0 0
18 0.00000 0.00000 14.85641 0 0 0
19 0.00000 -0.50000 15.72243 0 0 0
20 0.00000 0.00000 16.58846 0 0 0
21 0.00000 -0.50000 17.45448 0 0 0
22 0.00000 0.00000 18.32051 0 0 0
23 0.00000 -0.50000 19.18653 0 0 0
24 0.00000 0.00000 20.05256 0 0 0
25 0.00000 -0.50000 20.91858 0 0 0
26 0.00000 0.00000 21.78461 0 0 0
27 0.00000 -0.50000 22.65064 0 0 0
28 0.00000 0.00000 23.51666 0 0 0
29 0.00000 -0.50000 24.38269 0 0 0
30 0.00000 0.00000 25.24871 0 0 0
31 0.00000 -0.50000 26.11474 0 0 0
32 0.00000 0.00000 26.98076 0 0 0
33 0.00000 -0.50000 27.84679 0 0 0
34 0.00000 0.00000 28.71281 0 0 0
35 0.00000 -0.50000 29.57884 0 0 0
36 0.00000 0.00000 30.44486 0 0 0
37 0.00000 -0.50000 31.31089 0 0 0
38 0.00000 0.00000 32.17691 0 0 0
39 0.00000 -0.50000 33.04294 0 0 0
40 0.00000 0.00000 33.90897 0 0 0
41 0.00000 -0.50000 34.77499 0 0 0
42 0.00000 0.00000 35.64102 0 0 0
43 0.00000 -0.50000 36.50704 0 0 0
44 0.00000 0.00000 37.37307 0 0 0
45 0.00000 -0.50000 38.23909 0 0 0
46 0.00000 0.00000 39.10512 0 0 0
47 0.00000 -0.50000 39.97114 0 0 0
48 0.00000 0.00000 40.83717 0 0 0
49 0.00000 -0.50000 41.70319 0 0 0
50 0.00000 0.00000 42.56922 0 0 0
51 0.00000 -0.50000 43.43524 0 0 0
52 0.00000 0.00000 44.30127 0 0 0
53 0.00000 -0.50000 45.16730 0 0 0
54 0.00000 0.00000 46.03332 0 0 0
55 0.00000 -0.50000 46.89935 0 0 0
56 0.00000 0.00000 47.76537 0 0 0
57 0.00000 -0.50000 48.63140 0 0 0
58 0.00000 0.00000 49.49742 0 0 0
59 0.00000 -0.50000 50.36345 0 0 0
60 0.00000 0.00000 51.22947 0 0 0
61 0.00000 -0.50000 52.09550 0 0 0
62 0.00000 0.00000 52.96152 0 0 0
63 0.00000 -0.50000 53.82755 0 0 0
64 0.00000 0.00000 54.69358 0 0 0
65 0.00000 -0.50000 55.55960 0 0 0
66 0.00000 0.00000 56.42563 0 0 0
67 0.00000 -0.50000 57.29165 0 0 0
68 -0.80611 -0.47589 57.88292 0 0 0
69 -1.61223 -0.75065 58.40703 0 0 0
70 -2.41834 -0.43414 58.90703 0 0 0
71 -3.22446 -0.70890 59.43113 0 0 0
72 -4.03057 -0.39239 59.93113 0 0 0
73 -4.83669 -0.66714 60.45524 0 0 0
74 -5.64280 -0.35063 60.95524 0 0 0
75 -6.44892 -0.62539 61.47934 0 0 0
76 -7.25503 -0.30888 61.97934 0 0 0
77 -8.06115 -0.58364 62.50345 0 0 0
78 -8.86726 -0.26713 63.00345 0 0 0
79 -9.67338 -0.54188 63.52756 0 0 0
80 -10.47949 -0.22537 64.02756 0 0 0
81 -11.28561 -0.50013 64.55166 0 0 0
82 -12.09172 -0.18362 65.05166 0 0 0
83 -12.89784 -0.45838 65.57577 0 0 0
84 -13.70395 -0.14187 66.07577 0 0 0
85 -14.51006 -0.41662 66.59988 0 0 0
86 -15.31618 -0.10011 67.09988 0 0 0
87 -16.12229 -0.37487 67.62398 0 0 0
88 -16.92841 -0.05836 68.12398 0 0 0
89 -17.73452 -0.33312 68.64809 0 0 0
90 -18.54064 -0.01660 69.14809 0 0 0
91 -19.34675 -0.29136 69.67220 0 0 0
92 -20.15287 0.02515 70.17220 0 0 0
93 -20.95898 -0.24961 70.69630 0 0 0
94 -21.76510 0.06690 71.19630 0 0 0
95 -22.57121 -0.20786 71.72041 0 0 0
96 -23.37733 0.10866 72.22041 0 0 0
97 -24.18344 -0.16610 72.74452 0 0 0
98 -24.98956 0.15041 73.24452 0 0 0
99 -25.79567 -0.12435 73.76862 0 0 0
100 -26.60179 0.19216 74.26862 0 0 0
101 -27.40790 -0.08259 74.79273 0 0 0
102 -28.21401 0.23392 75.29273 0 0 0
103 -29.02013 -0.04084 75.81683 0 0 0
104 -29.82624 0.27567 76.31683 0 0 0
105 -30.63236 0.00091 76.84094 0 0 0
106 -31.43847 0.31742 77.34094 0 0 0
107 -32.24459 0.04267 77.86505 0 0 0
108 -33.05070 0.35918 78.36505 0 0 0
109 -33.85682 0.08442 78.88915 0 0 0
110 -34.66293 0.40093 79.38915 0 0 0
111 -35.46905 0.12617 79.91326 0 0 0
112 -36.27516 0.44268 80.41326 0 0 0
113 -37.08128 0.16793 80.93737 0 0 0
114 -37.88739 0.48444 81.43737 0 0 0
115 -38.69351 0.20968 81.96147 0 0 0
116 -39.49962 0.52619 82.46147 0 0 0
117 -40.30573 0.25143 82.98558 0 0 0
118 -41.11185 0.56794 83.48558 0 0 0
119 -41.91796 0.29319 84.00969 0 0 0
120 -42.72408 0.60970 84.50969 0 0 0
121 -43.53019 0.33494 85.03379 0 0 0
122 -44.33631 0.65145 85.53379 0 0 0
123 -45.14242 0.37669 86.05790 0 0 0
124 -45.94854 0.69320 86.55790 0 0 0
125 -46.75465 0.41845 87.08201 0 0 0
126 -47.56077 0.73496 87.58201 0 0 0
127 -48.36688 0.46020 88.10611 0 0 0
128 -49.17300 0.77671 88.60611 0 0 0
129 -49.97911 0.50195 89.13022 0 0 0
130 -50.78523 0.81847 89.63022 0 0 0
131 -51.59134 0.54371 90.15432 0 0 0
132 -52.39746 0.86022 90.65432 0 0 0
133 -53.20357 0.58546 91.17843 0 0 0
134 0.80611 -1.02411 57.56641 0 0 0
135 1.61223 -1.61537 57.54230 0 0 0
136 2.41834 -1.93189 58.04230 0 0 0
137 3.22446 -2.52315 58.01820 0 0 0
138 4.03057 -2.83966 58.51820 0 0 0
139 4.83669 -3.43093 58.49409 0 0 0
140 5.64280 -3.74744 58.99409 0 0 0
141 6.44892 -4.33871 58.96998 0 0 0
142 7.25503 -4.65522 59.46998 0 0 0
143 8.06115 -5.24649 59.44588 0 0 0
144 8.86726 -5.56300 59.94588 0 0 0
145 9.67338 -6.15427 59.92177 0 0 0
146 10.47949 -6.47078 60.42177 0 0 0
147 11.28561 -7.06205 60.39766 0 0 0
148 12.09172 -7.37856 60.89766 0 0 0
149 12.89784 -7.96983 60.87356 0 0 0
150 13.70395 -8.28634 61.37356 0 0 0
151 14.51006 -8.87761 61.34945 0 0 0
152 15.31618 -9.19412 61.84945 0 0 0
153 16.12229 -9.78538 61.82534 0 0 0
154 16.92841 -10.10190 62.32534 0 0 0
155 17.73452 -10.69316 62.30124 0 0 0
156 18.54064 -11.00967 62.80124 0 0 0
157 19.34675 -11.60094 62.77713 0 0 0
158 20.15287 -11.91745 63.27713 0 0 0
159 20.95898 -12.50872 63.25303 0 0 0
160 21.76510 -12.82523 63.75303 0 0 0
161 22.57121 -13.41650 63.72892 0 0 0
162 23.37733 -13.73301 64.22892 0 0 0
163 24.18344 -14.32428 64.20481 0 0 0
164 24.98956 -14.64079 64.70481 0 0 0
165 25.79567 -15.23206 64.68071 0 0 0
166 26.60179 -15.54857 65.18071 0 0 0
167 27.40790 -16.13984 65.15660 0 0 0
168 28.21401 -16.45635 65.65660 0 0 0
169 29.02013 -17.04762 65.63249 0 0 0
170 29.82624 -17.36413 66.13249 0 0 0
171 30.63236 -17.95540 66.10839 0 0 0
172 31.43847 -18.27191 66.60839 0 0 0
173 32.24459 -18.86317 66.58428 0 0 0
174 33.05070 -19.17968 67.08428 0 0 0
175 33.85682 -19.77095 67.06017 0 0 0
176 34.66293 -20.08746 67.56017 0 0 0
177 35.46905 -20.67873 67.53607 0 0 0
178 36.27516 -20.99524 68.03607 0 0 0
179 37.08128 -21.58651 68.01196 0 0 0
180 37.88739 -21.90302 68.51196 0 0 0
181 38.69351 -22.49429 68.48785 0 0 0
182 39.49962 -22.81080 68.98785 0 0 0
183 40.30573 -23.40207 68.96375 0 0 0
184 41.11185 -23.71858 69.46375 0 0 0
185 41.91796 -24.30985 69.43964 0 0 0
186 42.72408 -24.62636 69.93964 0 0 0
187 43.53019 -25.21763 69.91554 0 0 0
188 44.33631 -25.53414 70.41554 0 0 0
189 45.14242 -26.12541 70.39143 0 0 0
190 45.94854 -26.44192 70.89143 0 0 0
191 46.75465 -27.03318 70.86732 0 0 0
192 47.56077 -27.34970 71.36732 0 0 0
193 48.36688 -27.94096 71.34322 0 0 0
194 49.17300 -28.25747 71.84322 0 0 0
195 49.97911 -28.84874 71.81911 0 0 0
196 50.78523 -29.16525 72.31911 0 0 0
197 51.59134 -29.75652 72.29500 0 0 0
198 52.39746 -30.07303 72.79500 0 0 0
199 53.20357 -30.66430 72.77090 0 0 0
ITEM: TIMESTEP
1000
ITEM: NUMBER OF ATOMS
199
ITEM: BOX BOUNDS pp pp pp
-1.0000000000000000e+03 1.0000000000000000e+03
-1.0000000000000000e+03 1.0000000000000000e+03
-1.0000000000000000e+03 1.0000000000000000e+03
ITEM: ATOMS id x y z ix iy iz
1 0.90592 -0.05359 4.56669 0 0 0
2 1.02251 -0.69871 3.77589 0 0 0
3 1.24011 -1.60920 4.08011 0 0 0
4 1.09388 -1.94855 4.91567 0 0 0
5 0.86447 -1.34513 5.64619 0 0 0
6 1.59641 -0.69721 6.02168 0 0 0
7 2.01716 0.20041 6.25136 0 0 0
8 1.50989 0.88150 6.85926 0 0 0
9 0.87682 0.68685 7.61469 0 0 0
10 0.92224 -0.02611 8.24003 0 0 0
11 1.31532 -0.33702 9.21188 0 0 0
12 1.01378 -0.53273 10.11732 0 0 0
13 1.22939 -0.85536 10.95747 0 0 0
14 0.87073 -0.40508 11.92655 0 0 0
15 1.32086 0.19752 12.62432 0 0 0
16 0.73700 0.17316 13.49232 0 0 0
17 0.42559 0.92611 14.10437 0 0 0
18 0.72844 1.48585 14.84940 0 0 0
19 1.16020 1.59205 15.71325 0 0 0
20 1.41865 1.38149 16.64919 0 0 0
21 1.68377 0.73986 17.35004 0 0 0
22 2.04626 0.91504 18.20996 0 0 0
23 2.25552 1.14570 19.16438 0 0 0
24 2.27151 0.84476 20.07210 0 0 0
25 2.14677 0.96012 21.07536 0 0 0
26 1.74345 1.47467 21.74749 0 0 0
27 1.54067 1.48165 22.75597 0 0 0
28 1.19127 1.16448 23.71851 0 0 0
29 0.71697 0.64385 24.38171 0 0 0
30 0.74678 0.73195 25.38142 0 0 0
31 0.67615 0.89374 26.38301 0 0 0
32 0.45217 0.61078 27.24426 0 0 0
33 0.48360 0.79178 28.25464 0 0 0
34 0.07786 0.27116 29.08162 0 0 0
35 -0.34597 0.26371 30.03331 0 0 0
36 -0.71685 0.29511 30.98467 0 0 0
37 -0.80393 0.37497 31.97034 0 0 0
38 -0.72937 0.92317 32.91484 0 0 0
39 -0.99273 0.59896 33.81625 0 0 0
40 -1.65648 0.23940 34.50650 0 0 0
41 -1.97767 -0.02809 35.42779 0 0 0
42 -1.98871 0.11255 36.49961 0 0 0
43 -2.00782 0.51331 37.44663 0 0 0
44 -1.56554 0.96913 38.22094 0 0 0
45 -1.31306 0.66611 39.08557 0 0 0
46 -1.48438 0.54437 40.02056 0 0 0
47 -1.74930 0.37640 40.90235 0 0 0
48 -2.30486 0.78023 41.58312 0 0 0
49 -2.35865 0.29674 42.38154 0 0 0
50 -2.17805 -0.20651 43.29528 0 0 0
51 -1.97173 -0.17919 44.23882 0 0 0
52 -2.27928 -0.10165 45.13867 0 0 0
53 -1.95108 -0.29705 46.12214 0 0 0
54 -2.18237 -0.40869 47.08942 0 0 0
55 -1.78667 -0.33690 47.99722 0 0 0
56 -1.21538 0.07608 48.81609 0 0 0
57 -1.11653 -0.13277 49.77384 0 0 0
58 -0.93307 -0.45178 50.71335 0 0 0
59 -0.83813 -1.01793 51.57104 0 0 0
60 -1.27267 -0.81845 52.42936 0 0 0
61 -1.46555 -0.84387 53.43556 0 0 0
62 -1.29328 -1.26708 54.31006 0 0 0
63 -0.58998 -1.66717 54.84819 0 0 0
64 -0.28288 -1.86319 55.70098 0 0 0
65 -0.06154 -1.97508 56.78563 0 0 0
66 0.03399 -1.81862 57.81911 0 0 0
67 0.34150 -1.68841 58.74699 0 0 0
68 -0.35317 -1.34038 59.38460 0 0 0
69 -1.33785 -1.20288 59.46826 0 0 0
70 -2.30863 -1.00312 59.70777 0 0 0
71 -3.02139 -0.94219 60.38612 0 0 0
72 -3.89585 -0.76874 60.92374 0 0 0
73 -4.58714 -0.50051 61.51547 0 0 0
74 -5.35816 -0.67638 62.09394 0 0 0
75 -6.28618 -0.42794 62.45412 0 0 0
76 -7.15502 -0.14674 62.82125 0 0 0
77 -8.02338 -0.37659 63.15887 0 0 0
78 -8.98028 -0.64911 63.27788 0 0 0
79 -9.40983 0.33454 63.41606 0 0 0
80 -10.36209 0.67904 63.37429 0 0 0
81 -11.12279 0.64809 64.08503 0 0 0
82 -11.77681 0.98505 64.72810 0 0 0
83 -12.60836 1.09985 65.25624 0 0 0
84 -13.52213 1.36854 65.78217 0 0 0
85 -14.10014 1.95952 66.35881 0 0 0
86 -14.86410 1.98561 67.00455 0 0 0
87 -15.54412 1.32260 67.43980 0 0 0
88 -16.48380 1.23019 67.73593 0 0 0
89 -17.21393 1.00501 68.39691 0 0 0
90 -17.95896 0.74274 69.01999 0 0 0
91 -18.74154 0.59501 69.55989 0 0 0
92 -19.45552 0.64630 70.20588 0 0 0
93 -20.29872 0.30723 70.61416 0 0 0
94 -20.66634 0.21786 71.59296 0 0 0
95 -21.29141 0.14967 72.37688 0 0 0
96 -21.71192 0.45138 73.15930 0 0 0
97 -22.71845 0.57932 73.30186 0 0 0
98 -23.54751 0.37754 73.75544 0 0 0
99 -24.27131 0.65960 74.34723 0 0 0
100 -25.16747 0.49318 74.67087 0 0 0
101 -25.87407 0.94097 75.10662 0 0 0
102 -26.80553 1.02946 75.13560 0 0 0
103 -27.66922 1.45468 75.58610 0 0 0
104 -28.68181 1.17663 75.43672 0 0 0
105 -29.09934 0.94145 76.26711 0 0 0
106 -30.03669 1.04428 76.89958 0 0 0
107 -30.80866 0.82238 77.35532 0 0 0
108 -31.53079 0.31893 77.63077 0 0 0
109 -32.56274 0.23994 77.77483 0 0 0
110 -33.44555 0.20692 78.35034 0 0 0
111 -34.25161 0.62153 78.75612 0 0 0
112 -34.88754 0.60374 79.54984 0 0 0
113 -35.86322 0.53919 79.37060 0 0 0
114 -36.84248 0.27594 79.41535 0 0 0
115 -37.33894 0.24608 80.20800 0 0 0
116 -38.09681 -0.30842 80.53248 0 0 0
117 -38.82288 -0.35528 81.20526 0 0 0
118 -39.67620 -0.80034 81.47902 0 0 0
119 -40.48090 -0.99339 82.02033 0 0 0
120 -41.32101 -0.88491 82.56584 0 0 0
121 -42.09241 -0.61174 83.04078 0 0 0
122 -42.91171 -0.74947 82.58075 0 0 0
123 -43.78402 -0.64161 82.32249 0 0 0
124 -44.16926 -0.45590 83.19442 0 0 0
125 -44.17586 -0.42439 84.16448 0 0 0
126 -44.99711 -0.49453 84.78202 0 0 0
127 -45.37126 0.14640 85.58588 0 0 0
128 -46.25892 -0.07590 85.96962 0 0 0
129 -46.47978 0.22713 86.80454 0 0 0
130 -47.43456 0.56366 87.04816 0 0 0
131 -47.66957 0.06399 87.88704 0 0 0
132 -47.31378 -0.86453 87.85285 0 0 0
133 -46.76525 -1.35419 88.49446 0 0 0
134 1.17752 -2.20433 58.84732 0 0 0
135 2.11963 -2.11303 59.19022 0 0 0
136 3.04402 -1.96786 59.57271 0 0 0
137 3.47831 -2.58222 60.16867 0 0 0
138 4.36102 -2.86133 60.43039 0 0 0
139 5.27086 -3.08898 60.85347 0 0 0
140 6.13738 -3.57115 60.67496 0 0 0
141 7.03978 -3.92620 60.58400 0 0 0
142 7.87221 -4.52855 60.65195 0 0 0
143 8.56906 -5.16690 60.82034 0 0 0
144 9.24091 -5.83241 60.53280 0 0 0
145 10.20352 -6.13831 60.40070 0 0 0
146 11.22749 -6.25800 60.19813 0 0 0
147 11.94432 -6.80907 60.56480 0 0 0
148 12.65102 -7.51858 60.57447 0 0 0
149 13.08074 -8.32199 60.62977 0 0 0
150 13.89005 -8.94614 60.61060 0 0 0
151 14.77180 -9.25455 60.75471 0 0 0
152 15.67235 -9.70647 60.50977 0 0 0
153 16.60791 -10.23591 60.48795 0 0 0
154 17.62550 -10.35249 60.73049 0 0 0
155 18.43006 -10.44422 61.32317 0 0 0
156 19.32772 -10.86919 61.57336 0 0 0
157 20.24756 -11.25687 61.36480 0 0 0
158 21.00572 -11.62794 62.02646 0 0 0
159 21.71477 -12.29807 62.12756 0 0 0
160 22.28318 -12.96294 62.57845 0 0 0
161 23.05082 -13.57366 62.26632 0 0 0
162 23.88413 -13.73004 62.81644 0 0 0
163 24.27852 -14.52087 63.18656 0 0 0
164 24.92609 -15.32705 63.60448 0 0 0
165 25.74877 -15.97625 64.00444 0 0 0
166 26.35360 -16.81765 64.10062 0 0 0
167 27.00772 -17.45492 64.44125 0 0 0
168 27.87325 -17.85173 64.70407 0 0 0
169 28.15595 -18.83338 64.60660 0 0 0
170 28.85116 -18.97262 65.29432 0 0 0
171 29.80965 -18.81300 65.62506 0 0 0
172 30.47535 -19.20092 64.95549 0 0 0
173 31.46369 -19.35306 64.63505 0 0 0
174 31.90428 -19.91194 65.27381 0 0 0
175 32.44952 -20.59645 65.69513 0 0 0
176 33.34629 -20.94427 65.66097 0 0 0
177 34.25535 -20.95094 65.36327 0 0 0
178 35.29339 -21.03647 65.66614 0 0 0
179 36.24321 -20.99214 65.90903 0 0 0
180 37.15700 -21.35042 65.91943 0 0 0
181 37.67557 -22.05039 66.35894 0 0 0
182 38.08214 -21.64152 67.14141 0 0 0
183 38.94210 -21.67312 67.83969 0 0 0
184 39.46248 -21.75919 68.73396 0 0 0
185 40.27521 -22.17231 68.94341 0 0 0
186 41.12197 -21.66449 68.76330 0 0 0
187 41.85885 -22.20128 69.31089 0 0 0
188 41.99433 -22.74092 70.04960 0 0 0
189 42.52350 -23.46458 70.42483 0 0 0
190 42.73640 -24.27664 70.94566 0 0 0
191 43.06700 -25.21789 70.91361 0 0 0
192 43.66143 -26.01231 71.11506 0 0 0
193 44.12575 -26.28139 71.91802 0 0 0
194 45.08026 -26.41460 72.17239 0 0 0
195 45.83292 -26.35211 71.36399 0 0 0
196 46.46053 -26.76781 72.01550 0 0 0
197 47.26518 -27.15473 72.35322 0 0 0
198 47.90175 -26.67682 73.02188 0 0 0
199 48.25288 -25.88379 72.59496 0 0 0
ITEM: TIMESTEP
2000
ITEM: NUMBER OF ATOMS
199
ITEM: BOX BOUNDS pp pp pp
-1.0000000000000000e+03 1.0000000000000000e+03
-1.0000000000000000e+03 1.0000000000000000e+03
-1.0000000000000000e+03 1.0000000000000000e+03
ITEM: ATOMS id x y z ix iy iz
1 -0.79357 0.25385 6.15909 0 0 0
2 0.11871 0.36728 6.43817 0 0 0
3 0.61876 0.65876 7.20721 0 0 0
4 1.55511 0.76508 6.82409 0 0 0
5 2.32193 1.10139 7.26131 0 0 0
6 2.50148 1.56667 8.17534 0 0 0
7 2.39505 1.99121 9.07023 0 0 0
8 1.98429 1.75799 10.00339 0 0 0
9 1.28398 1.44583 10.51770 0 0 0
10 0.21663 1.30162 10.49921 0 0 0
11 -0.52736 0.97919 10.98952 0 0 0
12 -0.40222 0.73737 11.97204 0 0 0
13 -0.91751 0.53871 12.77096 0 0 0
14 -0.85820 0.36980 13.70377 0 0 0
15 -0.68547 0.23388 14.67450 0 0 0
16 -0.57340 0.78567 15.46928 0 0 0
17 0.35864 1.05631 15.66796 0 0 0
18 0.32792 0.57670 16.54578 0 0 0
19 0.39806 0.80951 17.53100 0 0 0
20 0.20362 -0.08092 18.04764 0 0 0
21 0.18342 -0.12082 19.01168 0 0 0
22 0.43286 0.42328 19.78158 0 0 0
23 1.12701 0.74991 20.46404 0 0 0
24 0.41593 1.06788 21.19995 0 0 0
25 0.18514 1.35013 22.17095 0 0 0
26 0.42951 1.70916 23.05503 0 0 0
27 -0.09057 1.35868 23.79495 0 0 0
28 0.25926 1.28999 24.66598 0 0 0
29 0.27592 1.08206 25.65223 0 0 0
30 0.40571 1.05713 26.68758 0 0 0
31 0.12231 0.80250 27.68655 0 0 0
32 0.29456 1.04241 28.66169 0 0 0
33 -0.51124 1.31860 29.12231 0 0 0
34 -0.91407 2.19922 29.44603 0 0 0
35 -1.45590 2.52940 30.18452 0 0 0
36 -1.69205 2.30521 31.12527 0 0 0
37 -1.37139 1.70051 31.87667 0 0 0
38 -1.58796 1.06075 32.54617 0 0 0
39 -1.64989 0.91059 33.54625 0 0 0
40 -1.64785 0.24869 34.27043 0 0 0
41 -1.90916 0.40434 35.20214 0 0 0
42 -1.43479 0.09958 36.05787 0 0 0
43 -1.23037 -0.47994 36.76882 0 0 0
44 -1.50581 -0.71887 37.72393 0 0 0
45 -0.97183 -1.16738 38.32772 0 0 0
46 -0.82538 -0.93159 39.26621 0 0 0
47 -1.05084 -1.05079 40.19394 0 0 0
48 -1.03034 -1.18324 41.13302 0 0 0
49 -1.03937 -0.71333 42.02520 0 0 0
50 -0.62770 -0.80711 42.86685 0 0 0
51 -0.63747 -0.66877 43.80942 0 0 0
52 -0.59355 -0.60207 44.75017 0 0 0
53 -0.30625 -1.16014 45.49295 0 0 0
54 -0.01744 -0.74002 46.28629 0 0 0
55 -0.16325 -0.92868 47.23108 0 0 0
56 -0.06032 -0.56310 48.14883 0 0 0
57 -0.57376 -0.83646 48.95494 0 0 0
58 -0.55326 -1.18487 49.86381 0 0 0
59 -0.40914 -1.70174 50.84166 0 0 0
60 -0.08709 -1.51434 51.73420 0 0 0
61 -0.01497 -1.42919 52.72176 0 0 0
62 0.13619 -1.96064 53.58646 0 0 0
63 -0.06567 -1.69941 54.55306 0 0 0
64 -0.25708 -1.47934 55.47914 0 0 0
65 -0.15934 -1.84068 56.39583 0 0 0
66 0.26029 -2.11105 57.24611 0 0 0
67 0.47287 -2.32590 58.21323 0 0 0
68 -0.16446 -2.36054 58.98529 0 0 0
69 -0.82362 -2.46361 59.70896 0 0 0
70 -1.63153 -2.93950 60.08909 0 0 0
71 -2.34981 -3.04324 60.72617 0 0 0
72 -3.16918 -2.84612 61.20911 0 0 0
73 -3.94181 -2.37600 61.61436 0 0 0
74 -4.18969 -1.72494 62.25652 0 0 0
75 -4.98771 -1.50408 62.84176 0 0 0
76 -5.73527 -1.04617 63.45586 0 0 0
77 -6.31100 -1.22671 64.16017 0 0 0
78 -6.95315 -1.44780 64.79231 0 0 0
79 -7.89695 -1.14785 64.72837 0 0 0
80 -8.71946 -0.77536 65.17855 0 0 0
81 -9.72506 -0.79363 65.20151 0 0 0
82 -10.66411 -0.59653 65.54065 0 0 0
83 -11.49455 -0.95655 65.91003 0 0 0
84 -12.29059 -0.36598 65.91544 0 0 0
85 -13.10595 -0.19469 66.47983 0 0 0
86 -14.01383 -0.24104 66.83754 0 0 0
87 -14.43500 -0.43227 67.77507 0 0 0
88 -15.36361 -0.08839 67.95921 0 0 0
89 -15.82135 -0.23091 68.82444 0 0 0
90 -16.49375 -0.34219 69.52016 0 0 0
91 -16.99407 -0.60187 70.25751 0 0 0
92 -17.88890 -0.30186 70.57578 0 0 0
93 -18.38850 -0.31006 71.44284 0 0 0
94 -19.29721 0.00694 71.78844 0 0 0
95 -20.28903 0.23578 71.87207 0 0 0
96 -20.85017 0.76412 72.58587 0 0 0
97 -21.70788 0.69056 73.06249 0 0 0
98 -22.50795 0.33082 73.49263 0 0 0
99 -23.09804 0.87664 74.04674 0 0 0
100 -23.91103 0.55271 74.44354 0 0 0
101 -24.80522 0.33416 74.91307 0 0 0
102 -25.66325 0.33247 75.51711 0 0 0
103 -26.53903 0.43676 75.59285 0 0 0
104 -27.27589 -0.00848 75.90334 0 0 0
105 -28.18654 0.35567 75.96882 0 0 0
106 -29.16037 0.36477 75.79082 0 0 0
107 -29.77628 0.33628 76.56534 0 0 0
108 -30.67519 0.17505 76.93845 0 0 0
109 -31.44651 0.71379 76.68768 0 0 0
110 -32.43622 0.81567 76.62044 0 0 0
111 -33.16434 0.15274 76.52282 0 0 0
112 -33.31673 -0.19359 77.41414 0 0 0
113 -33.88769 -0.07951 78.31185 0 0 0
114 -34.75837 0.35879 78.62939 0 0 0
115 -35.71291 0.43588 78.90133 0 0 0
116 -36.58709 0.75791 78.62506 0 0 0
117 -37.09324 0.84653 79.54583 0 0 0
118 -38.03015 1.21728 79.49544 0 0 0
119 -38.83087 1.75392 79.57983 0 0 0
120 -39.51924 1.51997 80.19347 0 0 0
121 -40.24993 1.63612 80.82118 0 0 0
122 -41.12258 1.47400 81.06268 0 0 0
123 -41.85077 1.60560 81.68372 0 0 0
124 -42.81035 1.31547 81.86425 0 0 0
125 -43.34832 1.46014 82.75106 0 0 0
126 -43.39726 0.51158 82.89569 0 0 0
127 -44.13341 0.34331 83.57247 0 0 0
128 -44.85713 0.51258 84.17405 0 0 0
129 -45.39907 0.61240 84.94505 0 0 0
130 -46.34067 0.81512 85.15300 0 0 0
131 -47.33126 0.59617 85.24452 0 0 0
132 -46.88575 1.21072 85.94783 0 0 0
133 -46.33808 0.42144 86.31765 0 0 0
134 1.38941 -2.17328 57.82226 0 0 0
135 2.41510 -2.49372 57.85101 0 0 0
136 3.37445 -2.46766 58.07920 0 0 0
137 4.24610 -2.82857 58.39578 0 0 0
138 5.18460 -3.25482 58.60806 0 0 0
139 6.09359 -3.60183 58.70340 0 0 0
140 7.04269 -3.88591 58.61611 0 0 0
141 7.65023 -4.71513 58.52206 0 0 0
142 8.15811 -5.51139 58.38303 0 0 0
143 8.94295 -6.05117 58.86033 0 0 0
144 8.82064 -6.89005 59.31536 0 0 0
145 9.23659 -7.58002 59.83739 0 0 0
146 10.08731 -7.76020 60.16971 0 0 0
147 11.07082 -7.67786 60.32435 0 0 0
148 11.94748 -7.86816 60.88934 0 0 0
149 12.35875 -8.65145 60.62415 0 0 0
150 13.33486 -8.80487 60.40754 0 0 0
151 14.23043 -8.90817 60.16912 0 0 0
152 15.20987 -9.23824 60.01869 0 0 0
153 15.81594 -9.99903 60.20502 0 0 0
154 15.89677 -10.91464 59.96798 0 0 0
155 16.46768 -11.26301 60.72377 0 0 0
156 17.36053 -11.46925 61.12878 0 0 0
157 18.26191 -11.89022 60.82193 0 0 0
158 18.95732 -12.55326 60.68695 0 0 0
159 19.80217 -13.15359 60.51616 0 0 0
160 20.75189 -13.43633 60.35675 0 0 0
161 21.47593 -14.16379 60.40187 0 0 0
162 22.25194 -14.70310 60.74506 0 0 0
163 22.77196 -15.10812 61.46467 0 0 0
164 23.05857 -15.98495 61.69103 0 0 0
165 23.85012 -16.16790 62.27791 0 0 0
166 24.77952 -16.35649 62.54823 0 0 0
167 25.67726 -16.63249 62.93911 0 0 0
168 26.51756 -16.90389 63.29756 0 0 0
169 27.51714 -16.63298 63.45898 0 0 0
170 28.15415 -16.90075 62.81865 0 0 0
171 28.93140 -17.50817 62.66940 0 0 0
172 29.89822 -17.92086 62.83639 0 0 0
173 30.40242 -18.49719 63.47934 0 0 0
174 31.25185 -18.24321 63.97935 0 0 0
175 32.03120 -18.77841 64.31811 0 0 0
176 32.60296 -19.42634 64.66400 0 0 0
177 33.50007 -19.75179 65.03979 0 0 0
178 34.25417 -20.06063 65.61876 0 0 0
179 35.23380 -20.12661 65.95286 0 0 0
180 35.94188 -20.48647 66.38010 0 0 0
181 35.86355 -21.15685 67.13472 0 0 0
182 36.67811 -21.88617 67.30828 0 0 0
183 37.56150 -22.13630 67.62585 0 0 0
184 38.53337 -22.26160 67.71256 0 0 0
185 39.04055 -23.11352 67.69147 0 0 0
186 39.37974 -22.95777 68.56033 0 0 0
187 39.84900 -22.21535 68.96600 0 0 0
188 40.38125 -22.43950 69.73892 0 0 0
189 40.97021 -22.72976 70.44154 0 0 0
190 41.66400 -23.34288 70.83542 0 0 0
191 42.40879 -23.61782 71.41802 0 0 0
192 43.29767 -23.15479 71.68776 0 0 0
193 44.21433 -23.39855 71.66060 0 0 0
194 44.99706 -23.80836 71.23940 0 0 0
195 44.86227 -24.73874 70.83066 0 0 0
196 45.75290 -24.95477 70.50163 0 0 0
197 46.52357 -25.55028 70.82509 0 0 0
198 46.26497 -26.41886 71.24516 0 0 0
199 45.31411 -26.53431 71.13780 0 0 0
ITEM: TIMESTEP
3000
ITEM: NUMBER OF ATOMS
199
ITEM: BOX BOUNDS pp pp pp
-1.0000000000000000e+03 1.0000000000000000e+03
-1.0000000000000000e+03 1.0000000000000000e+03
-1.0000000000000000e+03 1.0000000000000000e+03
ITEM: ATOMS id x y z ix iy iz
1 1.79790 2.00279 8.65757 0 0 0
2 0.98034 1.42201 8.79190 0 0 0
3 0.88120 0.49134 8.43082 0 0 0
4 1.44126 -0.25325 8.64121 0 0 0
5 1.54508 -0.68967 9.50868 0 0 0
6 1.43528 -0.02576 10.18146 0 0 0
7 1.06024 0.65702 10.78010 0 0 0
8 1.09991 1.12534 11.66125 0 0 0
9 1.17714 1.76510 12.32025 0 0 0
10 0.93873 2.28411 13.14768 0 0 0
11 0.06354 2.53313 13.52467 0 0 0
12 -0.26882 2.22813 14.35955 0 0 0
13 -0.55080 1.24382 14.51468 0 0 0
14 0.08989 1.11178 15.26577 0 0 0
15 0.04315 0.18206 15.44588 0 0 0
16 -0.42758 0.66962 16.29427 0 0 0
17 -0.83485 -0.09874 16.70840 0 0 0
18 -0.26373 -0.12646 17.61610 0 0 0
19 0.06845 0.05673 18.54619 0 0 0
20 -0.75875 -0.56789 18.58896 0 0 0
21 -1.33712 -0.37386 19.38369 0 0 0
22 -2.04144 -0.04590 19.96838 0 0 0
23 -2.28235 0.35153 20.82127 0 0 0
24 -2.19996 -0.07780 21.74583 0 0 0
25 -1.86741 0.57602 22.42272 0 0 0
26 -1.76155 1.33628 23.16582 0 0 0
27 -1.52235 1.47979 24.11813 0 0 0
28 -2.09429 1.15492 24.93966 0 0 0
29 -2.25423 1.60411 25.84658 0 0 0
30 -2.62780 1.93167 26.76178 0 0 0
31 -3.36183 1.92096 27.51046 0 0 0
32 -3.02782 1.80356 28.49205 0 0 0
33 -2.87639 1.68032 29.48687 0 0 0
34 -3.09205 1.51222 30.44243 0 0 0
35 -2.27895 1.19798 30.95606 0 0 0
36 -1.75894 1.49209 31.74231 0 0 0
37 -1.60979 0.91730 32.51225 0 0 0
38 -2.08661 1.31536 33.29906 0 0 0
39 -2.06535 1.78896 34.15946 0 0 0
40 -2.06833 2.63258 34.66347 0 0 0
41 -1.18808 2.35958 35.01711 0 0 0
42 -1.32113 1.69592 35.69813 0 0 0
43 -1.77998 1.37200 36.55082 0 0 0
44 -1.80590 1.34188 37.55827 0 0 0
45 -1.80090 1.27050 38.54868 0 0 0
46 -1.52004 1.19134 39.45377 0 0 0
47 -1.61396 0.98963 40.42709 0 0 0
48 -1.53483 1.22249 41.41280 0 0 0
49 -1.58453 1.26145 42.34457 0 0 0
50 -1.71257 1.84959 43.13327 0 0 0
51 -1.80610 1.72469 44.09344 0 0 0
52 -1.45790 1.13362 44.86171 0 0 0
53 -1.27091 0.68971 45.71175 0 0 0
54 -0.73766 0.12475 46.31123 0 0 0
55 -0.77351 -0.12101 47.28835 0 0 0
56 -0.65583 -0.49526 48.17418 0 0 0
57 -0.49355 -0.54468 49.17740 0 0 0
58 -0.14536 -0.71499 50.12053 0 0 0
59 0.47928 -1.00782 50.85694 0 0 0
60 0.68003 -0.76708 51.84007 0 0 0
61 0.83922 -1.00287 52.73857 0 0 0
62 0.77116 -0.81218 53.69059 0 0 0
63 0.66270 -0.82693 54.63776 0 0 0
64 0.52283 -1.18059 55.53868 0 0 0
65 0.12237 -1.30546 56.41053 0 0 0
66 0.39174 -1.96938 57.05173 0 0 0
67 0.42403 -1.79802 58.05773 0 0 0
68 -0.64869 -1.97626 57.99035 0 0 0
69 -1.33139 -1.47237 58.30753 0 0 0
70 -1.72853 -1.59051 59.23352 0 0 0
71 -2.61076 -1.26325 59.59281 0 0 0
72 -3.50035 -1.14401 59.92370 0 0 0
73 -4.23241 -1.03156 60.54095 0 0 0
74 -5.18862 -0.72469 60.88143 0 0 0
75 -6.21131 -0.63918 61.04458 0 0 0
76 -7.02790 -0.94652 61.53147 0 0 0
77 -7.86168 -0.65196 62.14346 0 0 0
78 -8.67009 -1.13511 62.42431 0 0 0
79 -9.41652 -1.06015 62.99623 0 0 0
80 -9.94061 -0.97693 63.80844 0 0 0
81 -10.71726 -0.95821 64.40233 0 0 0
82 -11.63975 -0.81988 64.47756 0 0 0
83 -12.22736 -1.10343 65.25463 0 0 0
84 -12.60100 -1.82842 65.95085 0 0 0
85 -13.51096 -2.36902 66.38113 0 0 0
86 -14.22079 -1.77380 66.70313 0 0 0
87 -14.68595 -1.87762 67.63551 0 0 0
88 -14.94820 -1.05150 68.10617 0 0 0
89 -15.70226 -0.66329 68.79286 0 0 0
90 -16.19257 -0.23084 69.53083 0 0 0
91 -17.21255 -0.30182 69.79762 0 0 0
92 -18.04934 -0.30901 70.37060 0 0 0
93 -18.86975 -0.86879 70.64812 0 0 0
94 -19.77574 -0.46643 70.71435 0 0 0
95 -20.41986 0.15097 71.08221 0 0 0
96 -21.20465 0.17046 71.66289 0 0 0
97 -22.05496 -0.40377 71.65946 0 0 0
98 -22.78011 -0.57265 72.34707 0 0 0
99 -23.36768 0.11176 72.68940 0 0 0
100 -23.91348 0.98436 72.50290 0 0 0
101 -24.73487 0.85807 73.17297 0 0 0
102 -25.47310 1.12491 73.76230 0 0 0
103 -26.40492 0.92972 73.99451 0 0 0
104 -27.37421 0.64533 74.14514 0 0 0
105 -27.89096 0.16742 74.82539 0 0 0
106 -28.83527 0.46696 75.16676 0 0 0
107 -29.77766 0.69390 75.03495 0 0 0
108 -30.69184 0.51761 75.38859 0 0 0
109 -31.31923 0.97693 75.93601 0 0 0
110 -32.27029 0.94995 76.17702 0 0 0
111 -33.03215 1.20625 76.67059 0 0 0
112 -33.94142 1.22745 76.49945 0 0 0
113 -34.56446 0.98518 77.16022 0 0 0
114 -34.84190 1.62405 77.78348 0 0 0
115 -35.79529 1.73905 78.03739 0 0 0
116 -36.26405 1.10620 78.56077 0 0 0
117 -35.90368 0.16232 78.70838 0 0 0
118 -35.83728 0.32575 79.68738 0 0 0
119 -36.77762 0.49356 79.96292 0 0 0
120 -37.63927 0.19211 80.47785 0 0 0
121 -38.64018 0.48658 80.32547 0 0 0
122 -38.77445 -0.41278 80.54867 0 0 0
123 -38.81794 -0.49379 81.51287 0 0 0
124 -39.23446 0.17064 82.20876 0 0 0
125 -40.10284 0.62479 81.89359 0 0 0
126 -40.61230 1.41762 81.55673 0 0 0
127 -41.12543 0.59583 81.76930 0 0 0
128 -41.91771 0.08779 81.91454 0 0 0
129 -42.81922 0.06780 82.24457 0 0 0
130 -43.74611 -0.22953 82.52867 0 0 0
131 -44.12873 0.61952 82.32343 0 0 0
132 -44.81463 0.48619 81.67237 0 0 0
133 -45.65517 0.36301 81.23961 0 0 0
134 1.28193 -2.05285 58.47156 0 0 0
135 1.82735 -2.85012 58.77822 0 0 0
136 2.54733 -3.43895 58.24167 0 0 0
137 3.41763 -3.79292 58.47685 0 0 0
138 4.01222 -4.30812 57.79106 0 0 0
139 4.51353 -4.57399 58.61443 0 0 0
140 5.05612 -4.65679 59.40765 0 0 0
141 5.51702 -5.61113 59.19779 0 0 0
142 6.34451 -5.73459 58.80283 0 0 0
143 6.82604 -5.87770 57.97846 0 0 0
144 7.64785 -6.28971 58.38949 0 0 0
145 8.54035 -6.66507 58.22791 0 0 0
146 9.57837 -6.51018 58.20514 0 0 0
147 10.09561 -7.32006 57.89998 0 0 0
148 10.74809 -8.00898 57.75952 0 0 0
149 11.75317 -8.26014 58.15104 0 0 0
150 12.65812 -8.43888 58.51659 0 0 0
151 13.27949 -8.81482 59.21994 0 0 0
152 14.01389 -9.56540 59.40222 0 0 0
153 14.73054 -10.27569 59.35031 0 0 0
154 15.51875 -10.34463 59.83538 0 0 0
155 16.40126 -10.15846 59.45049 0 0 0
156 17.28464 -10.33720 59.90534 0 0 0
157 18.00819 -10.86094 59.59283 0 0 0
158 18.61212 -11.67673 59.93908 0 0 0
159 19.50710 -12.08230 60.11107 0 0 0
160 20.22735 -12.59825 60.69805 0 0 0
161 20.63920 -13.38638 60.19533 0 0 0
162 21.51022 -13.06756 60.34749 0 0 0
163 22.18737 -13.34394 60.95704 0 0 0
164 22.59890 -14.00605 61.56835 0 0 0
165 23.42862 -14.60195 61.79209 0 0 0
166 24.27589 -14.65723 62.48696 0 0 0
167 25.16119 -15.25202 62.68824 0 0 0
168 25.95178 -15.69083 63.10589 0 0 0
169 26.66363 -16.26467 62.59507 0 0 0
170 27.03764 -16.74566 63.32102 0 0 0
171 27.57835 -17.16935 63.99599 0 0 0
172 28.21593 -17.62976 64.66666 0 0 0
173 29.06523 -17.48353 65.13766 0 0 0
174 30.05444 -17.55633 65.38009 0 0 0
175 31.02622 -17.54629 65.82797 0 0 0
176 31.61952 -18.19187 65.26270 0 0 0
177 32.43407 -18.57462 65.48160 0 0 0
178 33.07629 -19.18700 65.15445 0 0 0
179 33.59826 -19.95326 65.30260 0 0 0
180 34.22415 -20.65260 65.14964 0 0 0
181 35.07385 -21.03507 65.55271 0 0 0
182 35.85254 -20.90293 66.12285 0 0 0
183 36.53544 -20.20603 66.14718 0 0 0
184 37.14067 -20.59403 66.90231 0 0 0
185 38.10624 -20.78687 67.06948 0 0 0
186 39.14425 -20.75329 66.94762 0 0 0
187 39.93235 -21.30678 67.04938 0 0 0
188 40.38954 -22.05037 67.47585 0 0 0
189 40.50984 -22.99110 67.76101 0 0 0
190 41.05810 -23.78593 68.14355 0 0 0
191 40.81218 -23.93569 69.07090 0 0 0
192 40.58275 -24.80440 69.45527 0 0 0
193 41.39037 -25.08860 69.83920 0 0 0
194 42.26443 -24.76110 69.54012 0 0 0
195 43.07985 -25.26392 69.65505 0 0 0
196 43.20559 -26.23983 69.43578 0 0 0
197 43.92192 -26.36221 68.79109 0 0 0
198 44.90382 -26.52650 68.62515 0 0 0
199 45.57342 -27.35131 68.96954 0 0 0
ITEM: TIMESTEP
4000
ITEM: NUMBER OF ATOMS
199
ITEM: BOX BOUNDS pp pp pp
-1.0000000000000000e+03 1.0000000000000000e+03